      -----------------------------------------------------------      
     |                   =====================                   |     
     |                           x T B                           |     
     |                   =====================                   |     
     |                         S. Grimme                         |     
     |          Mulliken Center for Theoretical Chemistry        |     
     |                    University of Bonn                     |     
      -----------------------------------------------------------      

   * xtb version 6.7.1 (edcfbbe) compiled by 'conda@c0858423619e' on 2025-09-04

   xtb is free software: you can redistribute it and/or modify it under
   the terms of the GNU Lesser General Public License as published by
   the Free Software Foundation, either version 3 of the License, or
   (at your option) any later version.
   
   xtb is distributed in the hope that it will be useful,
   but WITHOUT ANY WARRANTY; without even the implied warranty of
   MERCHANTABILITY or FITNESS FOR A PARTICULAR PURPOSE.  See the
   GNU Lesser General Public License for more details.
   
   Cite this work as:
   * C. Bannwarth, E. Caldeweyher, S. Ehlert, A. Hansen, P. Pracht,
     J. Seibert, S. Spicher, S. Grimme, WIREs Comput. Mol. Sci., 2020, 11,
     e01493. DOI: 10.1002/wcms.1493
   
   for GFN2-xTB:
   * C. Bannwarth, S. Ehlert and S. Grimme., J. Chem. Theory Comput., 2019,
     15, 1652-1671. DOI: 10.1021/acs.jctc.8b01176
   for GFN1-xTB:
   * S. Grimme, C. Bannwarth, P. Shushkov, J. Chem. Theory Comput., 2017,
     13, 1989-2009. DOI: 10.1021/acs.jctc.7b00118
   for GFN0-xTB:
   * P. Pracht, E. Caldeweyher, S. Ehlert, S. Grimme, ChemRxiv, 2019, preprint.
     DOI: 10.26434/chemrxiv.8326202.v1
   for GFN-FF:
   * S. Spicher and S. Grimme, Angew. Chem. Int. Ed., 2020, 59, 15665-15673.
     DOI: 10.1002/anie.202004239
   
   for ALPB and GBSA implicit solvation:
   * S. Ehlert, M. Stahn, S. Spicher, S. Grimme, J. Chem. Theory Comput.,
     2021, 17, 4250-4261. DOI: 10.1021/acs.jctc.1c00471
   
   for ddCOSMO and CPCM-X implicit solvation:
   * M. Stahn, S. Ehlert, S. Grimme, J. Phys. Chem. A,
     2023, XX, XXXX-XXXX. DOI: 10.1021/acs.jpca.3c04382
   
   for DFT-D4:
   * E. Caldeweyher, C. Bannwarth and S. Grimme, J. Chem. Phys., 2017,
     147, 034112. DOI: 10.1063/1.4993215
   * E. Caldeweyher, S. Ehlert, A. Hansen, H. Neugebauer, S. Spicher,
     C. Bannwarth and S. Grimme, J. Chem. Phys., 2019, 150, 154122.
     DOI: 10.1063/1.5090222
   * E. Caldeweyher, J.-M. Mewes, S. Ehlert and S. Grimme, Phys. Chem. Chem. Phys.
     2020, 22, 8499-8512. DOI: 10.1039/D0CP00502A
   
   for sTDA-xTB:
   * S. Grimme and C. Bannwarth, J. Chem. Phys., 2016, 145, 054103.
     DOI: 10.1063/1.4959605
   
   in the mass-spec context:
   * V. Asgeirsson, C. Bauer and S. Grimme, Chem. Sci., 2017, 8, 4879.
     DOI: 10.1039/c7sc00601b
   * J. Koopman and S. Grimme, ACS Omega 2019, 4, 12, 15120-15133.
     DOI: 10.1021/acsomega.9b02011
   
   for metadynamics refer to:
   * S. Grimme, J. Chem. Theory Comput., 2019, 155, 2847-2862
     DOI: 10.1021/acs.jctc.9b00143
   
   for SPH calculations refer to:
   * S. Spicher and S. Grimme, J. Chem. Theory Comput., 2021, 17, 1701-1714
     DOI: 10.1021/acs.jctc.0c01306
   
   for ONIOM refer to:
   * C. Plett, A. Katbashev, S. Ehlert, S. Grimme, M. Bursch,
     Phys. Chem. Chem. Phys., 2023, 25, 17860-17868. DOI: 10.1039/D3CP02178E
   
   for DIPRO refer to:
   * J. Kohn, N. Gildemeister, S. Grimme, D. Fazzi, A. Hansen,
     J. Chem. Phys., 2023, just accepted.
   
   for PTB refer to:
   * S. Grimme, M. Mueller, A. Hansen, J. Chem. Phys., 2023, 158, 124111.
     DOI: 10.1063/5.0137838
   
   with help from (in alphabetical order)
   P. Atkinson, C. Bannwarth, F. Bohle, G. Brandenburg, E. Caldeweyher
   M. Checinski, S. Dohm, S. Ehlert, S. Ehrlich, I. Gerasimov, C. Hölzer
   A. Katbashev, J. Kohn, J. Koopman, C. Lavigne, S. Lehtola, F. März, M. Müller,
   F. Musil, H. Neugebauer, J. Pisarek, C. Plett, P. Pracht, F. Pultar,
   J. Seibert, P. Shushkov, S. Spicher, M. Stahn, M. Steiner, T. Strunk,
   J. Stückrath, T. Rose, and J. Unsleber
   
 * started run on 2026/01/05 at 09:06:16.113     
   ID    Z sym.   atoms
    1    6 C      1, 3-11, 14-16, 18, 20, 21, 24-29, 32, 62, 64, 67, 68, 70,
                  72, 75, 77, 79, 83, 85, 88, 89, 91, 93, 95, 97, 99, 103,
                  105, 108, 111, 115, 117, 120, 123, 128, 135, 139, 141, 144,
                  145, 147, 149, 151, 153, 155, 159, 161, 164, 167, 172, 176,
                  178, 181, 184, 187, 191, 193, 195, 199, 203, 207, 209, 212,
                  213, 215, 217, 220, 222, 224, 228, 230, 233, 235, 239, 241,
                  245, 247, 249, 253, 256, 260
    2    7 N      2, 22, 60, 81, 101, 113, 126, 129, 132, 137, 157, 169, 174,
                  189, 205, 226, 234, 237, 243
    3    8 O      12, 13, 17, 30, 31, 73, 80, 100, 109, 110, 112, 136, 156,
                  168, 173, 185, 186, 188, 204, 218, 225, 242, 261
    4   16 S      19, 23
    5    1 H      33-59, 61, 63, 65, 66, 69, 71, 74, 76, 78, 82, 84, 86, 87,
                  90, 92, 94, 96, 98, 102, 104, 106, 107, 114, 116, 118, 119,
                  121, 122, 124, 125, 127, 130, 131, 133, 134, 138, 140, 142,
                  143, 146, 148, 150, 152, 154, 158, 160, 162, 163, 165, 166,
                  170, 171, 175, 177, 179, 180, 182, 183, 190, 192, 194,
                  196-198, 200-202, 206, 208, 210, 211, 214, 216, 219, 221,
                  223, 227, 229, 231, 232, 236, 238, 240, 244, 246, 248,
                  250-252, 254, 255, 257-259, 262-277

           -------------------------------------------------
          |                Calculation Setup                |
           -------------------------------------------------

          program call               : xtb /home/antonio_mesquita/Documentos/gmx_ISA_project/testes_arquivos_primeiros/gmx_ISA_testes/testes_qm_xtb/QM_analysis/QM_FRAMES_CAPPED/frame_1000ps/complex_capped_1000ps.xyz --gfn 2 --alpb water --chrg 0 --etemp 1500 --cycles 1000
          coordinate file            : /home/antonio_mesquita/Documentos/gmx_ISA_project/testes_arquivos_primeiros/gmx_ISA_testes/testes_qm_xtb/QM_analysis/QM_FRAMES_CAPPED/frame_1000ps/complex_capped_1000ps.xyz
          omp threads                :                    16


molecular fragmentation (1/2 indicates fragments):
111111111111111111111111111111111111111111111111111111111112222222222222
222222222222222222222222222222222222222222222222222222222222222222222222
222222222222222222222222222222222222222222222222222222222222222222222222
2222222222222222222222222222222222222222222222222222222222222
# atoms in fragment 1/2:    59   218
 fragment masses (1/2) :      475.60     1513.76
CMA distance (Bohr)    :   8.212
constraining FC (au)   :  0.0500

           -------------------------------------------------
          |                 G F N 2 - x T B                 |
           -------------------------------------------------

        Reference                      10.1021/acs.jctc.8b01176
      * Hamiltonian:
        H0-scaling (s, p, d)           1.850000    2.230000    2.230000
        zeta-weighting                 0.500000
      * Dispersion:
        s8                             2.700000
        a1                             0.520000
        a2                             5.000000
        s9                             5.000000
      * Repulsion:
        kExp                           1.500000    1.000000
        rExp                           1.000000
      * Coulomb:
        alpha                          2.000000
        third order                    shell-resolved
        anisotropic                    true
        a3                             3.000000
        a5                             4.000000
        cn-shift                       1.200000
        cn-exp                         4.000000
        max-rad                        5.000000

      * Solvation model:               ALPB
        Solvent                        water
        Parameter file                 internal GFN2-xTB/ALPB
        Dielectric constant                8.0200E+01
        Reference state                gsolv [1 M gas/solution]
        Free energy shift                  1.0808E-03 Eh       6.7819E-01 kcal/mol
        Temperature                        2.9815E+02 K
        Density                            1.0000E+00 kg/L
        Solvent mass                       1.8000E+01 g/mol
        Interaction kernel             P16
        Born radius scaling (c1)           1.4744E+00
        Born radii integrator          GBOBC
        Born offset                        0.0000E+00 a0       0.0000E+00 AA
        H-bond correction              true
        Ion screening                  false
        Surface tension                    1.0000E-05 Eh       1.5569E+01 dyn/cm
        Grid points                               230 per atom

          ...................................................
          :                      SETUP                      :
          :.................................................:
          :  # basis functions                 709          :
          :  # atomic orbitals                 707          :
          :  # shells                          419          :
          :  # electrons                       766          :
          :  max. iterations                   250          :
          :  Hamiltonian                  GFN2-xTB          :
          :  restarted?                      false          :
          :  GBSA solvation                   true          :
          :  PC potential                    false          :
          :  electronic temp.         1500.0000000     K    :
          :  accuracy                    1.0000000          :
          :  -> integral cutoff          0.2500000E+02      :
          :  -> integral neglect         0.1000000E-07      :
          :  -> SCF convergence          0.1000000E-05 Eh   :
          :  -> wf. convergence          0.1000000E-03 e    :
          :  Broyden damping             0.4000000          :
          :  net charge                          0          :
          :  unpaired electrons                  0          :
          ...................................................

 iter      E             dE          RMSdq      gap      omega  full diag
   1   -434.9743722 -0.434974E+03  0.461E+00    0.07       0.0  T
   2   -435.6132860 -0.638914E+00  0.264E+00    1.41       1.0  T
   3   -435.5292077  0.840783E-01  0.175E+00    0.05       1.0  T
   4   -435.8224585 -0.293251E+00  0.795E-01    0.48       1.0  T
   5   -435.8270068 -0.454824E-02  0.653E-01    0.07       1.0  T
   6   -435.9397252 -0.112718E+00  0.221E-01    0.18       1.0  T
   7   -435.9396577  0.674985E-04  0.182E-01    0.33       1.0  T
   8   -435.9438459 -0.418821E-02  0.126E-01    0.22       1.0  T
   9   -435.9458591 -0.201322E-02  0.843E-02    0.29       1.0  T
  10   -435.9473077 -0.144854E-02  0.338E-02    0.32       1.0  T
  11   -435.9474036 -0.959631E-04  0.187E-02    0.31       1.0  T
  12   -435.9473833  0.203116E-04  0.186E-02    0.30       1.0  T
  13   -435.9474553 -0.719656E-04  0.789E-03    0.30       1.0  T
  14   -435.9474561 -0.818135E-06  0.646E-03    0.31       1.0  T
  15   -435.9474666 -0.104489E-04  0.232E-03    0.30       2.6  T
  16   -435.9474662  0.355835E-06  0.231E-03    0.31       2.6  T
  17   -435.9474674 -0.123729E-05  0.841E-04    0.31       7.1  T
  18   -435.9474676 -0.118949E-06  0.376E-04    0.31      16.0  T
  19   -435.9474676 -0.557355E-08  0.303E-04    0.31      19.8  T

   *** convergence criteria satisfied after 19 iterations ***

         #    Occupation            Energy/Eh            Energy/eV
      -------------------------------------------------------------
         1        2.0000           -0.7954913             -21.6464
       ...           ...                  ...                  ...
       377        1.8959           -0.3615211              -9.8375
       378        1.8819           -0.3608878              -9.8203
       379        1.8806           -0.3608317              -9.8187
       380        1.8797           -0.3607941              -9.8177
       381        1.8720           -0.3604806              -9.8092
       382        1.8548           -0.3598378              -9.7917
       383        1.8425           -0.3594209              -9.7803 (HOMO)
       384        1.0481           -0.3481945              -9.4749 (LUMO)
       385        0.0001           -0.3007994              -8.1852
       386        0.0000           -0.2955892              -8.0434
       387        0.0000           -0.2950491              -8.0287
       388        0.0000           -0.2867606              -7.8032
       ...           ...                  ...                  ...
       707                          1.0258615              27.9151
      -------------------------------------------------------------
                  HL-Gap            0.0112264 Eh            0.3055 eV
             Fermi-level           -0.3477375 Eh           -9.4624 eV

 SCC (total)                   0 d,  0 h,  0 min,  2.743 sec
 SCC setup                      ...        0 min,  0.021 sec (  0.752%)
 Dispersion                     ...        0 min,  0.028 sec (  1.011%)
 classical contributions        ...        0 min,  0.004 sec (  0.140%)
 integral evaluation            ...        0 min,  0.053 sec (  1.940%)
 iterations                     ...        0 min,  2.375 sec ( 86.575%)
 molecular gradient             ...        0 min,  0.255 sec (  9.284%)
 printout                       ...        0 min,  0.008 sec (  0.296%)

         :::::::::::::::::::::::::::::::::::::::::::::::::::::
         ::                     SUMMARY                     ::
         :::::::::::::::::::::::::::::::::::::::::::::::::::::
         :: total energy            -430.625387819760 Eh    ::
         :: total w/o Gsasa/hb      -430.580343331834 Eh    ::
         :: gradient norm              0.323919527720 Eh/a0 ::
         :: HOMO-LUMO gap              0.305484911073 eV    ::
         ::.................................................::
         :: SCC energy              -435.933964404503 Eh    ::
         :: -> isotropic ES            1.165151936371 Eh    ::
         :: -> anisotropic ES         -0.018467919155 Eh    ::
         :: -> anisotropic XC          0.181366297254 Eh    ::
         :: -> dispersion             -0.308622077587 Eh    ::
         :: -> Gsolv                  -0.319568508067 Eh    ::
         ::    -> Gelec               -0.274524020141 Eh    ::
         ::    -> Gsasa                0.009763214051 Eh    ::
         ::    -> Ghb                 -0.055888461675 Eh    ::
         ::    -> Gshift               0.001080759698 Eh    ::
         :: repulsion energy           5.308576584743 Eh    ::
         :: add. restraining           0.000000000000 Eh    ::
         :: total charge               0.000000000001 e     ::
         :::::::::::::::::::::::::::::::::::::::::::::::::::::

           -------------------------------------------------
          |                Property Printout                |
           -------------------------------------------------

    * Orbital Energies and Occupations

         #    Occupation            Energy/Eh            Energy/eV
      -------------------------------------------------------------
         1        2.0000           -0.7954913             -21.6464
       ...           ...                  ...                  ...
       371        1.9962           -0.3775400             -10.2734
       372        1.9952           -0.3763608             -10.2413
       373        1.9853           -0.3710364             -10.0964
       374        1.9775           -0.3689995             -10.0410
       375        1.9577           -0.3659515              -9.9580
       376        1.9356           -0.3639015              -9.9023
       377        1.8959           -0.3615211              -9.8375
       378        1.8819           -0.3608878              -9.8203
       379        1.8806           -0.3608317              -9.8187
       380        1.8797           -0.3607941              -9.8177
       381        1.8720           -0.3604806              -9.8092
       382        1.8548           -0.3598378              -9.7917
       383        1.8425           -0.3594209              -9.7803 (HOMO)
       384        1.0481           -0.3481945              -9.4749 (LUMO)
       385        0.0001           -0.3007994              -8.1852
       386        0.0000           -0.2955892              -8.0434
       387        0.0000           -0.2950491              -8.0287
       388        0.0000           -0.2867606              -7.8032
       389        0.0000           -0.2851842              -7.7603
       390        0.0000           -0.2848902              -7.7523
       391        0.0000           -0.2815095              -7.6603
       392        0.0000           -0.2786608              -7.5827
       393                         -0.2634058              -7.1676
       394                         -0.2527450              -6.8775
       ...                                ...                  ...
       707                          1.0258615              27.9151
      -------------------------------------------------------------
                  HL-Gap            0.0112264 Eh            0.3055 eV
             Fermi-level           -0.3477375 Eh           -9.4624 eV

     #   Z          covCN         q      C6AA      α(0)
     1   6 C        2.746     0.270    22.432     7.755
     2   7 N        2.687    -0.117    23.543     7.206
     3   6 C        2.871     0.030    27.330     8.570
     4   6 C        3.679     0.075    19.530     6.330
     5   6 C        3.808    -0.074    21.904     6.662
     6   6 C        2.965     0.017    27.621     8.621
     7   6 C        2.918    -0.034    28.856     8.809
     8   6 C        2.906    -0.029    28.715     8.787
     9   6 C        2.917    -0.037    28.911     8.817
    10   6 C        2.906    -0.036    28.894     8.814
    11   6 C        2.915    -0.042    29.032     8.836
    12   8 O        1.702    -0.301    19.007     5.886
    13   8 O        0.857    -0.496    23.698     6.527
    14   6 C        2.700     0.329    21.415     7.574
    15   6 C        3.745    -0.131    23.095     6.855
    16   6 C        3.808    -0.001    20.590     6.459
    17   8 O        0.857    -0.445    22.600     6.374
    18   6 C        3.788    -0.026    21.051     6.535
    19  16 S        1.960    -0.172   148.330    20.498
    20   6 C        3.790    -0.037    21.246     6.564
    21   6 C        3.871     0.029    20.039     6.365
    22   7 N        2.727    -0.290    27.481     7.786
    23  16 S        3.795     1.169   101.932    16.993
    24   6 C        2.956    -0.097    30.430     9.048
    25   6 C        2.946    -0.024    28.594     8.770
    26   6 C        2.909    -0.032    28.805     8.801
    27   6 C        2.962     0.043    27.032     8.528
    28   6 C        2.916    -0.039    28.960     8.825
    29   6 C        2.942    -0.029    28.731     8.791
    30   8 O        0.860    -0.643    27.192     6.991
    31   8 O        0.859    -0.661    27.664     7.052
    32   6 C        3.753    -0.137    23.192     6.867
    33   1 H        0.860     0.238     0.931     1.512
    34   1 H        0.924     0.055     2.259     2.350
    35   1 H        0.924     0.065     2.144     2.290
    36   1 H        0.924     0.090     1.881     2.145
    37   1 H        0.923     0.103     1.762     2.076
    38   1 H        0.924     0.031     2.566     2.505
    39   1 H        0.924     0.021     2.715     2.577
    40   1 H        0.924     0.036     2.497     2.471
    41   1 H        0.924     0.050     2.318     2.381
    42   1 H        0.925     0.052     2.293     2.368
    43   1 H        0.924     0.064     2.156     2.296
    44   1 H        0.924     0.064     2.158     2.298
    45   1 H        0.924     0.071     2.075     2.253
    46   1 H        0.923     0.085     1.932     2.174
    47   1 H        0.923     0.079     1.985     2.204
    48   1 H        0.924     0.052     2.292     2.367
    49   1 H        0.923     0.085     1.930     2.173
    50   1 H        0.925     0.055     2.258     2.350
    51   1 H        0.924     0.070     2.080     2.256
    52   1 H        0.922     0.075     2.027     2.226
    53   1 H        0.925     0.035     2.519     2.482
    54   1 H        0.925     0.084     1.935     2.176
    55   1 H        0.926     0.090     1.875     2.142
    56   1 H        0.924     0.062     2.178     2.308
    57   1 H        0.924     0.085     1.925     2.170
    58   1 H        0.924     0.066     2.135     2.285
    59   1 H        0.923     0.077     2.008     2.216
    60   7 N        2.630    -0.335    28.621     7.946
    61   1 H        0.860     0.192     1.145     1.676
    62   6 C        3.783     0.033    20.037     6.376
    63   1 H        0.925     0.097     1.814     2.106
    64   6 C        3.834    -0.082    22.033     6.678
    65   1 H        0.925     0.079     1.988     2.205
    66   1 H        0.925     0.062     2.177     2.308
    67   6 C        2.963    -0.001    28.053     8.688
    68   6 C        2.911    -0.046    29.144     8.852
    69   1 H        0.925     0.034     2.527     2.486
    70   6 C        2.907    -0.069    29.721     8.939
    71   1 H        0.926     0.020     2.739     2.588
    72   6 C        2.839     0.138    24.978     8.190
    73   8 O        1.660    -0.425    21.340     6.236
    74   1 H        0.806     0.329     0.639     1.255
    75   6 C        2.906    -0.066    29.646     8.928
    76   1 H        0.925     0.061     2.186     2.312
    77   6 C        2.914    -0.042    29.042     8.837
    78   1 H        0.926     0.063     2.162     2.299
    79   6 C        2.780     0.209    23.569     7.952
    80   8 O        0.856    -0.386    21.402     6.203
    81   7 N        2.630    -0.339    28.742     7.962
    82   1 H        0.860     0.181     1.210     1.723
    83   6 C        3.788     0.026    20.148     6.393
    84   1 H        0.926     0.080     1.977     2.199
    85   6 C        3.814    -0.076    21.939     6.667
    86   1 H        0.925     0.071     2.079     2.255
    87   1 H        0.925     0.060     2.194     2.316
    88   6 C        2.981     0.012    27.749     8.641
    89   6 C        2.913    -0.043    29.071     8.841
    90   1 H        0.926     0.060     2.198     2.318
    91   6 C        2.911    -0.038    28.946     8.822
    92   1 H        0.926     0.049     2.332     2.388
    93   6 C        2.911    -0.041    29.018     8.833
    94   1 H        0.925     0.035     2.516     2.480
    95   6 C        2.925    -0.034    28.842     8.807
    96   1 H        0.926     0.015     2.808     2.620
    97   6 C        2.904    -0.043    29.071     8.841
    98   1 H        0.926     0.026     2.639     2.540
    99   6 C        2.760     0.264    22.545     7.776
   100   8 O        0.860    -0.514    24.105     6.583
   101   7 N        2.693    -0.167    24.611     7.368
   102   1 H        0.860     0.212     1.049     1.604
   103   6 C        3.801     0.036    19.968     6.362
   104   1 H        0.925     0.099     1.791     2.093
   105   6 C        3.816    -0.077    21.956     6.669
   106   1 H        0.924     0.035     2.523     2.484
   107   1 H        0.924     0.060     2.203     2.321
   108   6 C        2.688     0.358    20.928     7.487
   109   8 O        0.858    -0.630    26.873     6.950
   110   8 O        0.856    -0.586    25.770     6.806
   111   6 C        2.762     0.208    23.579     7.952
   112   8 O        0.856    -0.365    20.996     6.143
   113   7 N        2.634    -0.349    29.002     7.998
   114   1 H        0.860     0.195     1.130     1.665
   115   6 C        3.784     0.040    19.920     6.358
   116   1 H        0.924     0.099     1.797     2.097
   117   6 C        3.805    -0.073    21.898     6.662
   118   1 H        0.924     0.063     2.169     2.303
   119   1 H        0.925     0.074     2.045     2.237
   120   6 C        3.799    -0.071    21.868     6.658
   121   1 H        0.925     0.070     2.086     2.259
   122   1 H        0.925     0.057     2.238     2.339
   123   6 C        3.735    -0.020    21.011     6.542
   124   1 H        0.924     0.076     2.021     2.223
   125   1 H        0.924     0.081     1.967     2.193
   126   7 N        2.686    -0.156    24.365     7.331
   127   1 H        0.861     0.232     0.956     1.532
   128   6 C        2.733     0.236    23.059     7.862
   129   7 N        2.673    -0.271    26.998     7.717
   130   1 H        0.860     0.240     0.924     1.505
   131   1 H        0.860     0.267     0.820     1.419
   132   7 N        2.677    -0.272    27.039     7.723
   133   1 H        0.860     0.226     0.984     1.554
   134   1 H        0.861     0.243     0.910     1.494
   135   6 C        2.761     0.200    23.740     7.979
   136   8 O        0.857    -0.396    21.598     6.231
   137   7 N        2.633    -0.335    28.622     7.946
   138   1 H        0.860     0.188     1.172     1.696
   139   6 C        3.786     0.044    19.850     6.346
   140   1 H        0.924     0.073     2.053     2.241
   141   6 C        3.811    -0.075    21.932     6.666
   142   1 H        0.924     0.073     2.058     2.243
   143   1 H        0.924     0.077     2.013     2.219
   144   6 C        2.963     0.009    27.812     8.650
   145   6 C        2.912    -0.044    29.096     8.845
   146   1 H        0.925     0.039     2.464     2.455
   147   6 C        2.915    -0.036    28.904     8.816
   148   1 H        0.925     0.027     2.636     2.539
   149   6 C        2.913    -0.036    28.900     8.815
   150   1 H        0.925     0.017     2.782     2.608
   151   6 C        2.909    -0.033    28.822     8.803
   152   1 H        0.926     0.036     2.499     2.472
   153   6 C        2.921    -0.043    29.076     8.843
   154   1 H        0.925     0.053     2.277     2.360
   155   6 C        2.756     0.205    23.643     7.962
   156   8 O        0.857    -0.384    21.359     6.196
   157   7 N        2.631    -0.353    29.102     8.012
   158   1 H        0.860     0.183     1.198     1.715
   159   6 C        3.787     0.031    20.069     6.381
   160   1 H        0.924     0.071     2.079     2.255
   161   6 C        3.806    -0.062    21.687     6.629
   162   1 H        0.924     0.045     2.378     2.412
   163   1 H        0.925     0.050     2.324     2.384
   164   6 C        3.804    -0.101    22.422     6.741
   165   1 H        0.925     0.065     2.139     2.287
   166   1 H        0.924     0.078     1.996     2.209
   167   6 C        2.744     0.289    22.107     7.699
   168   8 O        0.861    -0.536    24.586     6.648
   169   7 N        2.640    -0.292    27.534     7.793
   170   1 H        0.860     0.233     0.953     1.529
   171   1 H        0.860     0.248     0.891     1.478
   172   6 C        2.748     0.267    22.490     7.765
   173   8 O        0.859    -0.521    24.248     6.602
   174   7 N        2.686    -0.175    24.793     7.395
   175   1 H        0.860     0.212     1.045     1.601
   176   6 C        3.792     0.023    20.201     6.401
   177   1 H        0.924     0.083     1.948     2.183
   178   6 C        3.807    -0.044    21.351     6.578
   179   1 H        0.924     0.043     2.409     2.427
   180   1 H        0.924     0.054     2.277     2.360
   181   6 C        3.800    -0.084    22.103     6.694
   182   1 H        0.924     0.040     2.455     2.450
   183   1 H        0.924     0.034     2.537     2.491
   184   6 C        2.691     0.363    20.834     7.470
   185   8 O        0.861    -0.640    27.110     6.981
   186   8 O        0.861    -0.644    27.217     6.995
   187   6 C        2.751     0.271    22.421     7.753
   188   8 O        0.858    -0.505    23.894     6.554
   189   7 N        2.698    -0.152    24.293     7.320
   190   1 H        0.860     0.211     1.052     1.606
   191   6 C        3.792     0.029    20.091     6.383
   192   1 H        0.924     0.109     1.701     2.040
   193   6 C        3.853    -0.015    20.806     6.488
   194   1 H        0.924     0.064     2.158     2.297
   195   6 C        3.755    -0.108    22.625     6.782
   196   1 H        0.925     0.043     2.404     2.425
   197   1 H        0.925     0.026     2.638     2.540
   198   1 H        0.925     0.057     2.239     2.340
   199   6 C        3.753    -0.118    22.826     6.813
   200   1 H        0.924     0.049     2.327     2.385
   201   1 H        0.925     0.065     2.139     2.287
   202   1 H        0.923     0.034     2.529     2.487
   203   6 C        2.767     0.203    23.682     7.970
   204   8 O        0.856    -0.371    21.116     6.161
   205   7 N        2.632    -0.345    28.882     7.982
   206   1 H        0.860     0.192     1.146     1.677
   207   6 C        3.784     0.038    19.952     6.363
   208   1 H        0.925     0.078     1.999     2.211
   209   6 C        3.811    -0.075    21.926     6.665
   210   1 H        0.925     0.063     2.159     2.298
   211   1 H        0.925     0.061     2.185     2.312
   212   6 C        2.978     0.011    27.754     8.642
   213   6 C        2.907    -0.044    29.100     8.845
   214   1 H        0.926     0.067     2.123     2.278
   215   6 C        2.916    -0.062    29.540     8.912
   216   1 H        0.926     0.041     2.441     2.443
   217   6 C        2.828     0.136    25.026     8.197
   218   8 O        1.659    -0.461    22.069     6.342
   219   1 H        0.805     0.349     0.591     1.207
   220   6 C        2.933    -0.072    29.785     8.950
   221   1 H        0.925     0.028     2.618     2.530
   222   6 C        2.901    -0.040    29.005     8.831
   223   1 H        0.926     0.062     2.177     2.308
   224   6 C        2.757     0.200    23.731     7.977
   225   8 O        0.856    -0.391    21.495     6.216
   226   7 N        2.633    -0.334    28.591     7.941
   227   1 H        0.860     0.183     1.200     1.716
   228   6 C        3.788     0.049    19.764     6.332
   229   1 H        0.925     0.059     2.211     2.325
   230   6 C        3.816    -0.078    21.975     6.672
   231   1 H        0.925     0.067     2.120     2.277
   232   1 H        0.925     0.089     1.893     2.152
   233   6 C        3.031     0.038    27.122     8.542
   234   7 N        1.958    -0.334    29.485     8.052
   235   6 C        2.989     0.076    26.286     8.410
   236   1 H        0.926     0.059     2.208     2.324
   237   7 N        2.796    -0.088    22.953     7.116
   238   1 H        0.860     0.224     0.993     1.561
   239   6 C        3.035    -0.032    28.750     8.795
   240   1 H        0.926     0.051     2.306     2.375
   241   6 C        2.769     0.203    23.675     7.969
   242   8 O        0.857    -0.371    21.101     6.159
   243   7 N        2.631    -0.335    28.612     7.944
   244   1 H        0.860     0.180     1.214     1.726
   245   6 C        3.786     0.033    20.036     6.376
   246   1 H        0.924     0.085     1.932     2.174
   247   6 C        3.859    -0.022    20.930     6.506
   248   1 H        0.925     0.071     2.079     2.255
   249   6 C        3.757    -0.113    22.714     6.795
   250   1 H        0.925     0.045     2.381     2.413
   251   1 H        0.924     0.044     2.394     2.419
   252   1 H        0.924     0.028     2.620     2.531
   253   6 C        3.809    -0.072    21.869     6.657
   254   1 H        0.925     0.032     2.563     2.504
   255   1 H        0.925     0.044     2.394     2.420
   256   6 C        3.752    -0.122    22.899     6.824
   257   1 H        0.924     0.046     2.365     2.405
   258   1 H        0.925     0.041     2.434     2.440
   259   1 H        0.924     0.055     2.257     2.349
   260   6 C        2.758     0.209    23.573     7.951
   261   8 O        0.856    -0.388    21.435     6.207
   262   1 H        0.860     0.213     1.041     1.598
   263   1 H        0.923     0.059     2.214     2.327
   264   1 H        0.860     0.203     1.091     1.636
   265   1 H        0.923     0.085     1.927     2.171
   266   1 H        0.860     0.195     1.131     1.666
   267   1 H        0.923     0.069     2.102     2.267
   268   1 H        0.860     0.212     1.048     1.603
   269   1 H        0.923     0.055     2.256     2.349
   270   1 H        0.860     0.173     1.257     1.756
   271   1 H        0.923     0.086     1.921     2.167
   272   1 H        0.860     0.196     1.127     1.663
   273   1 H        0.923     0.073     2.054     2.241
   274   1 H        0.860     0.200     1.109     1.649
   275   1 H        0.923     0.071     2.076     2.253
   276   1 H        0.860     0.217     1.021     1.583
   277   1 H        0.923     0.063     2.161     2.299

 Mol. C6AA /au·bohr⁶  :     798642.641044
 Mol. C8AA /au·bohr⁸  :   18645172.220795
 Mol. α(0) /au        :       1368.478604


Wiberg/Mayer (AO) data.
largest (>0.10) Wiberg bond orders for each atom

 ---------------------------------------------------------------------------
     #   Z sym  total        # sym  WBO       # sym  WBO       # sym  WBO
 ---------------------------------------------------------------------------
     1   6 C    3.901 --    17 O    1.664     2 N    1.213    21 C    0.933
     2   7 N    3.498 --     1 C    1.213     3 C    1.159    33 H    0.876
                            17 O    0.153
     3   6 C    3.469 --     2 N    1.159    14 C    1.105     5 C    1.029
     4   6 C    3.911 --    15 C    1.007    34 H    0.971    35 H    0.967
                            12 O    0.933
     5   6 C    3.966 --     3 C    1.029     6 C    0.976    36 H    0.959
                            37 H    0.926
     6   6 C    3.960 --    11 C    1.414     7 C    1.406     5 C    0.976
                             9 C    0.110
     7   6 C    3.985 --     8 C    1.446     6 C    1.406    38 H    0.969
                            10 C    0.111
     8   6 C    3.988 --     7 C    1.446     9 C    1.434    39 H    0.963
                            11 C    0.110
     9   6 C    3.986 --    10 C    1.437     8 C    1.434    40 H    0.971
                             6 C    0.110
    10   6 C    3.986 --    11 C    1.442     9 C    1.437    41 H    0.968
                             7 C    0.111
    11   6 C    3.987 --    10 C    1.442     6 C    1.414    42 H    0.966
                             8 C    0.110
    12   8 O    2.218 --    14 C    1.081     4 C    0.933    13 O    0.144
    13   8 O    1.846 --    14 C    1.603    12 O    0.144
    14   6 C    3.864 --    13 O    1.603     3 C    1.105    12 O    1.081
    15   6 C    3.986 --     4 C    1.007    44 H    0.989    43 H    0.985
                            45 H    0.983
    16   6 C    3.960 --    18 C    1.007    22 N    0.984    46 H    0.959
                            47 H    0.959
    17   8 O    1.929 --     1 C    1.664     2 N    0.153
    18   6 C    3.975 --    16 C    1.007    19 S    0.985    48 H    0.974
                            49 H    0.967
    19  16 S    2.100 --    20 C    0.990    18 C    0.985
    20   6 C    3.982 --    21 C    0.991    19 S    0.990    50 H    0.972
                            51 H    0.963
    21   6 C    3.966 --    20 C    0.991    22 N    0.983     1 C    0.933
                            52 H    0.928
    22   7 N    3.177 --    16 C    0.984    21 C    0.983    23 S    0.883
    23  16 S    4.797 --    30 O    1.557    31 O    1.524    22 N    0.883
                            24 C    0.737
    24   6 C    3.939 --    25 C    1.406    29 C    1.404    23 S    0.737
    25   6 C    3.983 --    26 C    1.443    24 C    1.406    53 H    0.964
                            28 C    0.105
    26   6 C    3.980 --    25 C    1.443    27 C    1.397    54 H    0.958
                            29 C    0.106
    27   6 C    3.980 --    26 C    1.397    28 C    1.396    32 C    1.033
    28   6 C    3.974 --    29 C    1.443    27 C    1.396    55 H    0.961
                            25 C    0.105
    29   6 C    3.977 --    28 C    1.443    24 C    1.404    56 H    0.965
                            26 C    0.106
    30   8 O    1.852 --    23 S    1.557    31 O    0.106
    31   8 O    1.835 --    23 S    1.524    30 O    0.106
    32   6 C    3.980 --    27 C    1.033    58 H    0.974    59 H    0.972
                            57 H    0.950
    33   1 H    0.935 --     2 N    0.876
    34   1 H    0.995 --     4 C    0.971
    35   1 H    0.992 --     4 C    0.967
    36   1 H    0.991 --     5 C    0.959
    37   1 H    0.959 --     5 C    0.926
    38   1 H    0.999 --     7 C    0.969
    39   1 H    0.998 --     8 C    0.963
    40   1 H    0.998 --     9 C    0.971
    41   1 H    0.997 --    10 C    0.968
    42   1 H    0.997 --    11 C    0.966
    43   1 H    0.996 --    15 C    0.985
    44   1 H    0.996 --    15 C    0.989
    45   1 H    0.994 --    15 C    0.983
    46   1 H    0.993 --    16 C    0.959
    47   1 H    0.994 --    16 C    0.959
    48   1 H    0.996 --    18 C    0.974
    49   1 H    0.992 --    18 C    0.967
    50   1 H    0.995 --    20 C    0.972
    51   1 H    0.995 --    20 C    0.963
    52   1 H    0.991 --    21 C    0.928
    53   1 H    0.998 --    25 C    0.964
    54   1 H    0.992 --    26 C    0.958
    55   1 H    0.991 --    28 C    0.961
    56   1 H    0.996 --    29 C    0.965
    57   1 H    0.992 --    32 C    0.950
    58   1 H    0.995 --    32 C    0.974
    59   1 H    0.993 --    32 C    0.972
    60   7 N    2.993 --    62 C    1.039    61 H    0.946   262 H    0.939
    61   1 H    0.963 --    60 N    0.946
    62   6 C    3.975 --    60 N    1.039    79 C    0.990    63 H    0.934
                            64 C    0.920
    63   1 H    0.986 --    62 C    0.934
    64   6 C    3.972 --    67 C    1.012    66 H    0.967    65 H    0.959
                            62 C    0.920
    65   1 H    0.992 --    64 C    0.959
    66   1 H    0.994 --    64 C    0.967
    67   6 C    3.974 --    77 C    1.404    68 C    1.390    64 C    1.012
    68   6 C    3.983 --    70 C    1.467    67 C    1.390    69 H    0.968
                            75 C    0.102
    69   1 H    0.999 --    68 C    0.968
    70   6 C    3.983 --    68 C    1.467    72 C    1.348    71 H    0.967
                            77 C    0.105
    71   1 H    0.999 --    70 C    0.967
    72   6 C    3.922 --    75 C    1.365    70 C    1.348    73 O    1.085
    73   8 O    2.104 --    72 C    1.085    74 H    0.835
    74   1 H    0.891 --    73 O    0.835
    75   6 C    3.975 --    77 C    1.450    72 C    1.365    76 H    0.963
                            68 C    0.102
    76   1 H    0.996 --    75 C    0.963
    77   6 C    3.981 --    75 C    1.450    67 C    1.404    78 H    0.966
                            70 C    0.105
    78   1 H    0.996 --    77 C    0.966
    79   6 C    3.886 --    80 O    1.874    62 C    0.990   263 H    0.938
    80   8 O    2.041 --    79 C    1.874
    81   7 N    3.003 --    83 C    1.033    82 H    0.951   264 H    0.945
    82   1 H    0.967 --    81 N    0.951
    83   6 C    3.967 --    81 N    1.033    85 C    0.966    99 C    0.925
                            84 H    0.925
    84   1 H    0.985 --    83 C    0.925
    85   6 C    3.986 --    88 C    1.006    83 C    0.966    86 H    0.965
                            87 H    0.958
    86   1 H    0.993 --    85 C    0.965
    87   1 H    0.996 --    85 C    0.958
    88   6 C    3.986 --    97 C    1.416    89 C    1.409    85 C    1.006
                            93 C    0.107
    89   6 C    3.986 --    91 C    1.442    88 C    1.409    90 H    0.966
                            95 C    0.112
    90   1 H    0.996 --    89 C    0.966
    91   6 C    3.988 --    89 C    1.442    93 C    1.436    92 H    0.970
                            97 C    0.113
    92   1 H    0.997 --    91 C    0.970
    93   6 C    3.989 --    95 C    1.441    91 C    1.436    94 H    0.972
                            88 C    0.107
    94   1 H    0.998 --    93 C    0.972
    95   6 C    3.992 --    93 C    1.441    97 C    1.438    96 H    0.973
                            89 C    0.112
    96   1 H    0.999 --    95 C    0.973
    97   6 C    3.991 --    95 C    1.438    88 C    1.416    98 H    0.965
                            91 C    0.113
    98   1 H    0.999 --    97 C    0.965
    99   6 C    3.921 --   100 O    1.607   101 N    1.299    83 C    0.925
   100   8 O    1.915 --    99 C    1.607   101 N    0.188
   101   7 N    3.468 --    99 C    1.299   103 C    0.981   102 H    0.921
                           100 O    0.188
   102   1 H    0.955 --   101 N    0.921
   103   6 C    3.969 --   111 C    0.989   101 N    0.981   105 C    0.947
                           104 H    0.946
   104   1 H    0.990 --   103 C    0.946
   105   6 C    3.987 --   106 H    0.971   107 H    0.950   103 C    0.947
                           108 C    0.944
   106   1 H    0.999 --   105 C    0.971
   107   1 H    0.996 --   105 C    0.950
   108   6 C    3.938 --   109 O    1.489   110 O    1.461   105 C    0.944
   109   8 O    1.822 --   108 C    1.489   110 O    0.211
   110   8 O    1.875 --   108 C    1.461   109 O    0.211
   111   6 C    3.887 --   112 O    1.899   103 C    0.989   265 H    0.934
   112   8 O    2.056 --   111 C    1.899
   113   7 N    2.985 --   115 C    1.027   266 H    0.948   114 H    0.945
   114   1 H    0.962 --   113 N    0.945
   115   6 C    3.973 --   113 N    1.027   135 C    0.980   117 C    0.970
                           116 H    0.920
   116   1 H    0.984 --   115 C    0.920
   117   6 C    3.983 --   120 C    1.005   115 C    0.970   118 H    0.969
                           119 H    0.966
   118   1 H    0.996 --   117 C    0.969
   119   1 H    0.993 --   117 C    0.966
   120   6 C    3.991 --   117 C    1.005   123 C    0.997   122 H    0.976
                           121 H    0.969
   121   1 H    0.995 --   120 C    0.969
   122   1 H    0.997 --   120 C    0.976
   123   6 C    3.953 --   120 C    0.997   126 N    0.980   125 H    0.967
                           124 H    0.965
   124   1 H    0.994 --   123 C    0.965
   125   1 H    0.993 --   123 C    0.967
   126   7 N    3.436 --   128 C    1.290   123 C    0.980   127 H    0.917
   127   1 H    0.946 --   126 N    0.917
   128   6 C    3.974 --   132 N    1.327   129 N    1.326   126 N    1.290
   129   7 N    3.388 --   128 C    1.326   130 H    0.917   131 H    0.872
                           132 N    0.108
   130   1 H    0.942 --   129 N    0.917
   131   1 H    0.929 --   129 N    0.872
   132   7 N    3.398 --   128 C    1.327   133 H    0.924   134 H    0.867
                           129 N    0.108
   133   1 H    0.949 --   132 N    0.924
   134   1 H    0.941 --   132 N    0.867
   135   6 C    3.863 --   136 O    1.873   115 C    0.980   267 H    0.936
   136   8 O    2.020 --   135 C    1.873
   137   7 N    2.995 --   139 C    1.039   138 H    0.949   268 H    0.941
   138   1 H    0.965 --   137 N    0.949
   139   6 C    3.980 --   137 N    1.039   155 C    0.981   140 H    0.944
                           141 C    0.930
   140   1 H    0.995 --   139 C    0.944
   141   6 C    3.973 --   144 C    1.007   143 H    0.966   142 H    0.961
                           139 C    0.930
   142   1 H    0.994 --   141 C    0.961
   143   1 H    0.994 --   141 C    0.966
   144   6 C    3.984 --   153 C    1.428   145 C    1.394   141 C    1.007
                           149 C    0.106
   145   6 C    3.984 --   147 C    1.452   144 C    1.394   146 H    0.967
                           151 C    0.115
   146   1 H    0.998 --   145 C    0.967
   147   6 C    3.989 --   145 C    1.452   149 C    1.428   148 H    0.971
                           153 C    0.109
   148   1 H    0.999 --   147 C    0.971
   149   6 C    3.987 --   151 C    1.448   147 C    1.428   150 H    0.969
                           144 C    0.106
   150   1 H    0.999 --   149 C    0.969
   151   6 C    3.989 --   149 C    1.448   153 C    1.427   152 H    0.972
                           145 C    0.115
   152   1 H    0.998 --   151 C    0.972
   153   6 C    3.986 --   144 C    1.428   151 C    1.427   154 H    0.967
                           147 C    0.109
   154   1 H    0.997 --   153 C    0.967
   155   6 C    3.877 --   156 O    1.882   139 C    0.981   269 H    0.939
   156   8 O    2.028 --   155 C    1.882
   157   7 N    3.018 --   159 C    1.027   270 H    0.955   158 H    0.952
   158   1 H    0.967 --   157 N    0.952
   159   6 C    3.981 --   157 N    1.027   161 C    0.978   172 C    0.941
                           160 H    0.933
   160   1 H    0.995 --   159 C    0.933
   161   6 C    3.984 --   164 C    0.986   159 C    0.978   162 H    0.974
                           163 H    0.973
   162   1 H    0.997 --   161 C    0.974
   163   1 H    0.997 --   161 C    0.973
   164   6 C    3.990 --   161 C    0.986   167 C    0.975   165 H    0.972
                           166 H    0.961
   165   1 H    0.995 --   164 C    0.972
   166   1 H    0.994 --   164 C    0.961
   167   6 C    3.939 --   168 O    1.622   169 N    1.317   164 C    0.975
   168   8 O    1.916 --   167 C    1.622   169 N    0.195
   169   7 N    3.388 --   167 C    1.317   170 H    0.923   171 H    0.916
                           168 O    0.195
   170   1 H    0.946 --   169 N    0.923
   171   1 H    0.938 --   169 N    0.916
   172   6 C    3.938 --   173 O    1.615   174 N    1.290   159 C    0.941
   173   8 O    1.922 --   172 C    1.615   174 N    0.189
   174   7 N    3.469 --   172 C    1.290   176 C    0.980   175 H    0.921
                           173 O    0.189
   175   1 H    0.955 --   174 N    0.921
   176   6 C    3.963 --   174 N    0.980   178 C    0.979   187 C    0.942
                           177 H    0.927
   177   1 H    0.992 --   176 C    0.927
   178   6 C    3.990 --   181 C    0.997   176 C    0.979   180 H    0.975
                           179 H    0.972
   179   1 H    0.997 --   178 C    0.972
   180   1 H    0.996 --   178 C    0.975
   181   6 C    3.994 --   178 C    0.997   183 H    0.978   182 H    0.966
                           184 C    0.947
   182   1 H    0.998 --   181 C    0.966
   183   1 H    0.999 --   181 C    0.978
   184   6 C    3.927 --   185 O    1.481   186 O    1.476   181 C    0.947
   185   8 O    1.749 --   184 C    1.481   186 O    0.202
   186   8 O    1.747 --   184 C    1.476   185 O    0.202
   187   6 C    3.955 --   188 O    1.622   189 N    1.310   176 C    0.942
   188   8 O    1.938 --   187 C    1.622   189 N    0.197
   189   7 N    3.480 --   187 C    1.310   191 C    0.984   190 H    0.905
                           188 O    0.197
   190   1 H    0.955 --   189 N    0.905
   191   6 C    3.965 --   203 C    1.000   189 N    0.984   193 C    0.942
                           192 H    0.917
   192   1 H    0.988 --   191 C    0.917
   193   6 C    3.986 --   199 C    1.008   195 C    1.004   194 H    0.961
                           191 C    0.942
   194   1 H    0.995 --   193 C    0.961
   195   6 C    3.988 --   193 C    1.004   198 H    0.982   197 H    0.982
                           196 H    0.981
   196   1 H    0.998 --   195 C    0.981
   197   1 H    0.999 --   195 C    0.982
   198   1 H    0.996 --   195 C    0.982
   199   6 C    3.992 --   193 C    1.008   202 H    0.985   200 H    0.984
                           201 H    0.983
   200   1 H    0.998 --   199 C    0.984
   201   1 H    0.996 --   199 C    0.983
   202   1 H    0.999 --   199 C    0.985
   203   6 C    3.890 --   204 O    1.886   191 C    1.000   271 H    0.936
   204   8 O    2.059 --   203 C    1.886
   205   7 N    3.007 --   207 C    1.029   206 H    0.948   272 H    0.947
   206   1 H    0.963 --   205 N    0.948
   207   6 C    3.976 --   205 N    1.029   224 C    0.968   209 C    0.949
                           208 H    0.942
   208   1 H    0.990 --   207 C    0.942
   209   6 C    3.983 --   212 C    1.005   211 H    0.972   210 H    0.960
                           207 C    0.949
   210   1 H    0.994 --   209 C    0.960
   211   1 H    0.996 --   209 C    0.972
   212   6 C    3.985 --   213 C    1.418   222 C    1.395   209 C    1.005
   213   6 C    3.983 --   215 C    1.436   212 C    1.418   214 H    0.965
                           220 C    0.106
   214   1 H    0.995 --   213 C    0.965
   215   6 C    3.983 --   213 C    1.436   217 C    1.379   216 H    0.970
                           222 C    0.108
   216   1 H    0.998 --   215 C    0.970
   217   6 C    3.926 --   215 C    1.379   220 C    1.358   218 O    1.060
   218   8 O    2.065 --   217 C    1.060   219 H    0.853
   219   1 H    0.878 --   218 O    0.853
   220   6 C    3.985 --   222 C    1.464   217 C    1.358   221 H    0.964
                           213 C    0.106
   221   1 H    0.999 --   220 C    0.964
   222   6 C    3.986 --   220 C    1.464   212 C    1.395   223 H    0.966
                           215 C    0.108
   223   1 H    0.996 --   222 C    0.966
   224   6 C    3.863 --   225 O    1.882   207 C    0.968   273 H    0.935
   225   8 O    2.029 --   224 C    1.882
   226   7 N    2.986 --   228 C    1.020   227 H    0.951   274 H    0.944
   227   1 H    0.966 --   226 N    0.951
   228   6 C    3.977 --   226 N    1.020   241 C    0.990   229 H    0.958
                           230 C    0.923
   229   1 H    0.989 --   228 C    0.958
   230   6 C    3.973 --   233 C    1.012   231 H    0.969   232 H    0.957
                           228 C    0.923
   231   1 H    0.994 --   230 C    0.969
   232   1 H    0.992 --   230 C    0.957
   233   6 C    3.968 --   239 C    1.563   234 N    1.263   230 C    1.012
   234   7 N    2.980 --   235 C    1.524   233 C    1.263   237 N    0.103
   235   6 C    3.956 --   234 N    1.524   237 N    1.299   236 H    0.964
                           239 C    0.114
   236   1 H    0.996 --   235 C    0.964
   237   7 N    3.597 --   235 C    1.299   239 C    1.201   238 H    0.920
                           234 N    0.103
   238   1 H    0.950 --   237 N    0.920
   239   6 C    3.927 --   233 C    1.563   237 N    1.201   240 H    0.964
                           235 C    0.114
   240   1 H    0.997 --   239 C    0.964
   241   6 C    3.883 --   242 O    1.890   228 C    0.990   275 H    0.939
   242   8 O    2.040 --   241 C    1.890
   243   7 N    2.974 --   245 C    1.025   244 H    0.952   276 H    0.936
   244   1 H    0.968 --   243 N    0.952
   245   6 C    3.970 --   243 N    1.025   260 C    0.981   246 H    0.945
                           247 C    0.928
   246   1 H    0.992 --   245 C    0.945
   247   6 C    3.971 --   249 C    1.008   253 C    0.992   248 H    0.954
                           245 C    0.928
   248   1 H    0.995 --   247 C    0.954
   249   6 C    3.991 --   247 C    1.008   252 H    0.985   250 H    0.979
                           251 H    0.978
   250   1 H    0.997 --   249 C    0.979
   251   1 H    0.998 --   249 C    0.978
   252   1 H    0.999 --   249 C    0.985
   253   6 C    3.990 --   256 C    1.017   247 C    0.992   254 H    0.973
                           255 H    0.966
   254   1 H    0.999 --   253 C    0.973
   255   1 H    0.996 --   253 C    0.966
   256   6 C    3.990 --   253 C    1.017   257 H    0.984   259 H    0.981
                           258 H    0.974
   257   1 H    0.998 --   256 C    0.984
   258   1 H    0.998 --   256 C    0.974
   259   1 H    0.997 --   256 C    0.981
   260   6 C    3.869 --   261 O    1.884   245 C    0.981   277 H    0.938
   261   8 O    2.029 --   260 C    1.884
   262   1 H    0.954 --    60 N    0.939
   263   1 H    0.995 --    79 C    0.938
   264   1 H    0.959 --    81 N    0.945
   265   1 H    0.992 --   111 C    0.934
   266   1 H    0.962 --   113 N    0.948
   267   1 H    0.992 --   135 C    0.936
   268   1 H    0.955 --   137 N    0.941
   269   1 H    0.994 --   155 C    0.939
   270   1 H    0.970 --   157 N    0.955
   271   1 H    0.992 --   203 C    0.936
   272   1 H    0.962 --   205 N    0.947
   273   1 H    0.992 --   224 C    0.935
   274   1 H    0.960 --   226 N    0.944
   275   1 H    0.994 --   241 C    0.939
   276   1 H    0.953 --   243 N    0.936
   277   1 H    0.994 --   260 C    0.938
 ---------------------------------------------------------------------------

Topologies differ in total number of bonds
Writing topology from bond orders to xtbtopo.mol

molecular dipole:
                 x           y           z       tot (Debye)
 q only:       -6.231     -23.843     -10.191
   full:       -5.984     -22.881     -10.773      66.057
molecular quadrupole (traceless):
                xx          xy          yy          xz          yz          zz
 q only:     1308.527   -2991.462   -1305.984   -1792.366   -3706.062      -2.543
  q+dip:     1327.586   -2891.357   -1175.947   -1808.289   -3633.189    -151.639
   full:     1329.952   -2888.079   -1175.690   -1809.967   -3632.661    -154.263


           -------------------------------------------------
          | TOTAL ENERGY             -430.625387819760 Eh   |
          | GRADIENT NORM               0.323919527720 Eh/α |
          | HOMO-LUMO GAP               0.305484911073 eV   |
Note: The following floating-point exceptions are signalling: IEEE_UNDERFLOW_FLAG IEEE_DENORMAL
normal termination of xtb
           -------------------------------------------------

------------------------------------------------------------------------
 * finished run on 2026/01/05 at 09:06:18.982     
------------------------------------------------------------------------
 total:
 * wall-time:     0 d,  0 h,  0 min,  2.870 sec
 *  cpu-time:     0 d,  0 h,  0 min, 42.057 sec
 * ratio c/w:    14.656 speedup
 SCF:
 * wall-time:     0 d,  0 h,  0 min,  2.748 sec
 *  cpu-time:     0 d,  0 h,  0 min, 40.237 sec
 * ratio c/w:    14.643 speedup

