      -----------------------------------------------------------      
     |                   =====================                   |     
     |                           x T B                           |     
     |                   =====================                   |     
     |                         S. Grimme                         |     
     |          Mulliken Center for Theoretical Chemistry        |     
     |                    University of Bonn                     |     
      -----------------------------------------------------------      

   * xtb version 6.7.1 (edcfbbe) compiled by 'conda@c0858423619e' on 2025-09-04

   xtb is free software: you can redistribute it and/or modify it under
   the terms of the GNU Lesser General Public License as published by
   the Free Software Foundation, either version 3 of the License, or
   (at your option) any later version.
   
   xtb is distributed in the hope that it will be useful,
   but WITHOUT ANY WARRANTY; without even the implied warranty of
   MERCHANTABILITY or FITNESS FOR A PARTICULAR PURPOSE.  See the
   GNU Lesser General Public License for more details.
   
   Cite this work as:
   * C. Bannwarth, E. Caldeweyher, S. Ehlert, A. Hansen, P. Pracht,
     J. Seibert, S. Spicher, S. Grimme, WIREs Comput. Mol. Sci., 2020, 11,
     e01493. DOI: 10.1002/wcms.1493
   
   for GFN2-xTB:
   * C. Bannwarth, S. Ehlert and S. Grimme., J. Chem. Theory Comput., 2019,
     15, 1652-1671. DOI: 10.1021/acs.jctc.8b01176
   for GFN1-xTB:
   * S. Grimme, C. Bannwarth, P. Shushkov, J. Chem. Theory Comput., 2017,
     13, 1989-2009. DOI: 10.1021/acs.jctc.7b00118
   for GFN0-xTB:
   * P. Pracht, E. Caldeweyher, S. Ehlert, S. Grimme, ChemRxiv, 2019, preprint.
     DOI: 10.26434/chemrxiv.8326202.v1
   for GFN-FF:
   * S. Spicher and S. Grimme, Angew. Chem. Int. Ed., 2020, 59, 15665-15673.
     DOI: 10.1002/anie.202004239
   
   for ALPB and GBSA implicit solvation:
   * S. Ehlert, M. Stahn, S. Spicher, S. Grimme, J. Chem. Theory Comput.,
     2021, 17, 4250-4261. DOI: 10.1021/acs.jctc.1c00471
   
   for ddCOSMO and CPCM-X implicit solvation:
   * M. Stahn, S. Ehlert, S. Grimme, J. Phys. Chem. A,
     2023, XX, XXXX-XXXX. DOI: 10.1021/acs.jpca.3c04382
   
   for DFT-D4:
   * E. Caldeweyher, C. Bannwarth and S. Grimme, J. Chem. Phys., 2017,
     147, 034112. DOI: 10.1063/1.4993215
   * E. Caldeweyher, S. Ehlert, A. Hansen, H. Neugebauer, S. Spicher,
     C. Bannwarth and S. Grimme, J. Chem. Phys., 2019, 150, 154122.
     DOI: 10.1063/1.5090222
   * E. Caldeweyher, J.-M. Mewes, S. Ehlert and S. Grimme, Phys. Chem. Chem. Phys.
     2020, 22, 8499-8512. DOI: 10.1039/D0CP00502A
   
   for sTDA-xTB:
   * S. Grimme and C. Bannwarth, J. Chem. Phys., 2016, 145, 054103.
     DOI: 10.1063/1.4959605
   
   in the mass-spec context:
   * V. Asgeirsson, C. Bauer and S. Grimme, Chem. Sci., 2017, 8, 4879.
     DOI: 10.1039/c7sc00601b
   * J. Koopman and S. Grimme, ACS Omega 2019, 4, 12, 15120-15133.
     DOI: 10.1021/acsomega.9b02011
   
   for metadynamics refer to:
   * S. Grimme, J. Chem. Theory Comput., 2019, 155, 2847-2862
     DOI: 10.1021/acs.jctc.9b00143
   
   for SPH calculations refer to:
   * S. Spicher and S. Grimme, J. Chem. Theory Comput., 2021, 17, 1701-1714
     DOI: 10.1021/acs.jctc.0c01306
   
   for ONIOM refer to:
   * C. Plett, A. Katbashev, S. Ehlert, S. Grimme, M. Bursch,
     Phys. Chem. Chem. Phys., 2023, 25, 17860-17868. DOI: 10.1039/D3CP02178E
   
   for DIPRO refer to:
   * J. Kohn, N. Gildemeister, S. Grimme, D. Fazzi, A. Hansen,
     J. Chem. Phys., 2023, just accepted.
   
   for PTB refer to:
   * S. Grimme, M. Mueller, A. Hansen, J. Chem. Phys., 2023, 158, 124111.
     DOI: 10.1063/5.0137838
   
   with help from (in alphabetical order)
   P. Atkinson, C. Bannwarth, F. Bohle, G. Brandenburg, E. Caldeweyher
   M. Checinski, S. Dohm, S. Ehlert, S. Ehrlich, I. Gerasimov, C. Hölzer
   A. Katbashev, J. Kohn, J. Koopman, C. Lavigne, S. Lehtola, F. März, M. Müller,
   F. Musil, H. Neugebauer, J. Pisarek, C. Plett, P. Pracht, F. Pultar,
   J. Seibert, P. Shushkov, S. Spicher, M. Stahn, M. Steiner, T. Strunk,
   J. Stückrath, T. Rose, and J. Unsleber
   
 * started run on 2026/01/05 at 09:06:50.756     
   ID    Z sym.   atoms
    1    7 N      1, 22, 42, 54, 67, 70, 73, 78, 98, 113, 129, 148, 169, 177,
                  180, 186, 205
    2    1 H      2, 4, 6, 7, 10, 12, 15, 17, 19, 23, 25, 27, 28, 31, 33, 35,
                  37, 39, 43, 45, 47, 48, 55, 57, 59, 60, 62, 63, 65, 66, 68,
                  71, 72, 74, 75, 79, 81, 83, 84, 87, 89, 91, 93, 95, 99,
                  101, 103, 104, 106, 107, 114, 116, 118, 120-122, 124-126,
                  130, 132, 134, 136-138, 140, 141, 143-145, 149, 151, 153,
                  154, 157, 159, 162, 164, 166, 170, 172, 174, 175, 179, 181,
                  183, 187, 189, 191, 193-195, 197, 198, 200-202, 206, 208,
                  210, 212-214, 216, 217, 219-221, 224-239
    3    6 C      3, 5, 8, 9, 11, 13, 16, 18, 20, 24, 26, 29, 30, 32, 34, 36,
                  38, 40, 44, 46, 49, 52, 56, 58, 61, 64, 69, 76, 80, 82, 85,
                  86, 88, 90, 92, 94, 96, 100, 102, 105, 108, 111, 115, 117,
                  119, 123, 127, 131, 133, 135, 139, 142, 146, 150, 152, 155,
                  156, 158, 160, 163, 165, 167, 171, 173, 176, 178, 182, 184,
                  188, 190, 192, 196, 199, 203, 207, 209, 211, 215, 218, 222
    4    8 O      14, 21, 41, 50, 51, 53, 77, 97, 109, 110, 112, 128, 147,
                  161, 168, 185, 204, 223

           -------------------------------------------------
          |                Calculation Setup                |
           -------------------------------------------------

          program call               : xtb /home/antonio_mesquita/Documentos/gmx_ISA_project/testes_arquivos_primeiros/gmx_ISA_testes/testes_qm_xtb/QM_analysis/QM_FRAMES_CAPPED/frame_2200ps/residues_pocket_capped_2200ps.xyz --gfn 2 --alpb water --chrg -1 --etemp 1500 --cycles 1000
          coordinate file            : /home/antonio_mesquita/Documentos/gmx_ISA_project/testes_arquivos_primeiros/gmx_ISA_testes/testes_qm_xtb/QM_analysis/QM_FRAMES_CAPPED/frame_2200ps/residues_pocket_capped_2200ps.xyz
          omp threads                :                    16


molecular fragmentation (1/2 indicates fragments):
111111111111111111111222222222222222222222222222222222222222222222222222
222222222222222222222222222222222222222222222222222222222222222222222222
222222222222222222222222222222222222222222222222222222222222222222222222
22222221122222222222222
# atoms in fragment 1/2:    23   216
 fragment masses (1/2) :      165.19     1446.76
CMA distance (Bohr)    :  13.562
constraining FC (au)   :  0.0500

           -------------------------------------------------
          |                 G F N 2 - x T B                 |
           -------------------------------------------------

        Reference                      10.1021/acs.jctc.8b01176
      * Hamiltonian:
        H0-scaling (s, p, d)           1.850000    2.230000    2.230000
        zeta-weighting                 0.500000
      * Dispersion:
        s8                             2.700000
        a1                             0.520000
        a2                             5.000000
        s9                             5.000000
      * Repulsion:
        kExp                           1.500000    1.000000
        rExp                           1.000000
      * Coulomb:
        alpha                          2.000000
        third order                    shell-resolved
        anisotropic                    true
        a3                             3.000000
        a5                             4.000000
        cn-shift                       1.200000
        cn-exp                         4.000000
        max-rad                        5.000000

      * Solvation model:               ALPB
        Solvent                        water
        Parameter file                 internal GFN2-xTB/ALPB
        Dielectric constant                8.0200E+01
        Reference state                gsolv [1 M gas/solution]
        Free energy shift                  1.0808E-03 Eh       6.7819E-01 kcal/mol
        Temperature                        2.9815E+02 K
        Density                            1.0000E+00 kg/L
        Solvent mass                       1.8000E+01 g/mol
        Interaction kernel             P16
        Born radius scaling (c1)           1.4744E+00
        Born radii integrator          GBOBC
        Born offset                        0.0000E+00 a0       0.0000E+00 AA
        H-bond correction              true
        Ion screening                  false
        Surface tension                    1.0000E-05 Eh       1.5569E+01 dyn/cm
        Grid points                               230 per atom

          ...................................................
          :                      SETUP                      :
          :.................................................:
          :  # basis functions                 584          :
          :  # atomic orbitals                 584          :
          :  # shells                          354          :
          :  # electrons                       638          :
          :  max. iterations                   250          :
          :  Hamiltonian                  GFN2-xTB          :
          :  restarted?                      false          :
          :  GBSA solvation                   true          :
          :  PC potential                    false          :
          :  electronic temp.         1500.0000000     K    :
          :  accuracy                    1.0000000          :
          :  -> integral cutoff          0.2500000E+02      :
          :  -> integral neglect         0.1000000E-07      :
          :  -> SCF convergence          0.1000000E-05 Eh   :
          :  -> wf. convergence          0.1000000E-03 e    :
          :  Broyden damping             0.4000000          :
          :  net charge                         -1          :
          :  unpaired electrons                  0          :
          ...................................................

 iter      E             dE          RMSdq      gap      omega  full diag
   1   -361.1733250 -0.361173E+03  0.438E+00    1.80       0.0  T
   2   -361.8550430 -0.681718E+00  0.226E+00    1.12       1.0  T
   3   -361.8761900 -0.211470E-01  0.122E+00    1.64       1.0  T
   4   -361.9200437 -0.438537E-01  0.265E-01    1.14       1.0  T
   5   -361.9275639 -0.752019E-02  0.112E-01    1.29       1.0  T
   6   -361.9279946 -0.430707E-03  0.603E-02    1.26       1.0  T
   7   -361.9281851 -0.190522E-03  0.233E-02    1.26       1.0  T
   8   -361.9282060 -0.208851E-04  0.878E-03    1.27       1.0  T
   9   -361.9282099 -0.396292E-05  0.420E-03    1.26       1.5  T
  10   -361.9282107 -0.788067E-06  0.197E-03    1.26       3.3  T
  11   -361.9282109 -0.155591E-06  0.832E-04    1.26       7.8  T
  12   -361.9282109 -0.402264E-07  0.347E-04    1.26      18.6  T

   *** convergence criteria satisfied after 12 iterations ***

         #    Occupation            Energy/Eh            Energy/eV
      -------------------------------------------------------------
         1        2.0000           -0.7338675             -19.9696
       ...           ...                  ...                  ...
       313        1.9955           -0.3430583              -9.3351
       314        1.9946           -0.3421801              -9.3112
       315        1.9943           -0.3419150              -9.3040
       316        1.9941           -0.3417046              -9.2983
       317        1.9924           -0.3405263              -9.2662
       318        1.9920           -0.3402849              -9.2596
       319        1.9881           -0.3383953              -9.2082 (HOMO)
       320        0.0187           -0.2919330              -7.9439 (LUMO)
       321        0.0148           -0.2908249              -7.9137
       322        0.0102           -0.2890287              -7.8649
       323        0.0037           -0.2842368              -7.7345
       324        0.0014           -0.2794971              -7.6055
       ...           ...                  ...                  ...
       584                          0.6387804              17.3821
      -------------------------------------------------------------
                  HL-Gap            0.0464622 Eh            1.2643 eV
             Fermi-level           -0.3140832 Eh           -8.5466 eV

 SCC (total)                   0 d,  0 h,  0 min,  1.616 sec
 SCC setup                      ...        0 min,  0.010 sec (  0.596%)
 Dispersion                     ...        0 min,  0.021 sec (  1.273%)
 classical contributions        ...        0 min,  0.003 sec (  0.192%)
 integral evaluation            ...        0 min,  0.068 sec (  4.201%)
 iterations                     ...        0 min,  1.299 sec ( 80.333%)
 molecular gradient             ...        0 min,  0.213 sec ( 13.150%)
 printout                       ...        0 min,  0.004 sec (  0.253%)

         :::::::::::::::::::::::::::::::::::::::::::::::::::::
         ::                     SUMMARY                     ::
         :::::::::::::::::::::::::::::::::::::::::::::::::::::
         :: total energy            -357.428767761065 Eh    ::
         :: total w/o Gsasa/hb      -357.397233685114 Eh    ::
         :: gradient norm              0.308239828718 Eh/a0 ::
         :: HOMO-LUMO gap              1.264301633903 eV    ::
         ::.................................................::
         :: SCC energy              -361.918708202583 Eh    ::
         :: -> isotropic ES            1.032117743725 Eh    ::
         :: -> anisotropic ES          0.027934018146 Eh    ::
         :: -> anisotropic XC          0.156094411797 Eh    ::
         :: -> dispersion             -0.252603481314 Eh    ::
         :: -> Gsolv                  -0.293537882021 Eh    ::
         ::    -> Gelec               -0.262003806070 Eh    ::
         ::    -> Gsasa                0.010047022333 Eh    ::
         ::    -> Ghb                 -0.042661857982 Eh    ::
         ::    -> Gshift               0.001080759698 Eh    ::
         :: repulsion energy           4.489940441519 Eh    ::
         :: add. restraining           0.000000000000 Eh    ::
         :: total charge              -1.000000000000 e     ::
         :::::::::::::::::::::::::::::::::::::::::::::::::::::

           -------------------------------------------------
          |                Property Printout                |
           -------------------------------------------------

    * Orbital Energies and Occupations

         #    Occupation            Energy/Eh            Energy/eV
      -------------------------------------------------------------
         1        2.0000           -0.7338675             -19.9696
       ...           ...                  ...                  ...
       307        2.0000           -0.3743862             -10.1876
       308        2.0000           -0.3730763             -10.1519
       309        2.0000           -0.3679299             -10.0119
       310        2.0000           -0.3644544              -9.9173
       311        1.9999           -0.3592016              -9.7744
       312        1.9978           -0.3465410              -9.4299
       313        1.9955           -0.3430583              -9.3351
       314        1.9946           -0.3421801              -9.3112
       315        1.9943           -0.3419150              -9.3040
       316        1.9941           -0.3417046              -9.2983
       317        1.9924           -0.3405263              -9.2662
       318        1.9920           -0.3402849              -9.2596
       319        1.9881           -0.3383953              -9.2082 (HOMO)
       320        0.0187           -0.2919330              -7.9439 (LUMO)
       321        0.0148           -0.2908249              -7.9137
       322        0.0102           -0.2890287              -7.8649
       323        0.0037           -0.2842368              -7.7345
       324        0.0014           -0.2794971              -7.6055
       325        0.0012           -0.2788260              -7.5872
       326        0.0011           -0.2782313              -7.5711
       327        0.0003           -0.2729443              -7.4272
       328                         -0.2265620              -6.1651
       329                         -0.2234888              -6.0814
       330                         -0.2218940              -6.0380
       ...                                ...                  ...
       584                          0.6387804              17.3821
      -------------------------------------------------------------
                  HL-Gap            0.0464622 Eh            1.2643 eV
             Fermi-level           -0.3140832 Eh           -8.5466 eV

     #   Z          covCN         q      C6AA      α(0)
     1   7 N        2.632    -0.370    29.554     8.074
     2   1 H        0.860     0.158     1.347     1.818
     3   6 C        3.783     0.044    19.855     6.347
     4   1 H        0.923     0.060     2.197     2.318
     5   6 C        3.814    -0.080    22.021     6.679
     6   1 H        0.925     0.074     2.045     2.237
     7   1 H        0.925     0.054     2.265     2.354
     8   6 C        2.972     0.001    27.994     8.679
     9   6 C        2.907    -0.045    29.114     8.847
    10   1 H        0.925     0.030     2.582     2.513
    11   6 C        2.911    -0.069    29.729     8.941
    12   1 H        0.925     0.026     2.645     2.543
    13   6 C        2.832     0.141    24.931     8.182
    14   8 O        1.659    -0.440    21.629     6.278
    15   1 H        0.805     0.345     0.601     1.218
    16   6 C        2.917    -0.065    29.612     8.923
    17   1 H        0.926     0.051     2.305     2.374
    18   6 C        2.906    -0.044    29.099     8.845
    19   1 H        0.926     0.056     2.249     2.345
    20   6 C        2.761     0.208    23.586     7.953
    21   8 O        0.857    -0.377    21.219     6.176
    22   7 N        2.638    -0.383    29.899     8.121
    23   1 H        0.860     0.161     1.328     1.805
    24   6 C        3.790     0.034    20.018     6.372
    25   1 H        0.925     0.050     2.323     2.383
    26   6 C        3.809    -0.063    21.697     6.631
    27   1 H        0.924     0.062     2.180     2.309
    28   1 H        0.925     0.040     2.446     2.446
    29   6 C        2.954     0.002    27.971     8.675
    30   6 C        2.934    -0.048    29.180     8.859
    31   1 H        0.926     0.035     2.511     2.478
    32   6 C        2.910    -0.038    28.934     8.820
    33   1 H        0.926     0.046     2.376     2.410
    34   6 C        2.913    -0.034    28.855     8.808
    35   1 H        0.926     0.046     2.370     2.407
    36   6 C        2.914    -0.034    28.838     8.806
    37   1 H        0.926     0.042     2.424     2.435
    38   6 C        2.924    -0.039    28.959     8.825
    39   1 H        0.926     0.017     2.773     2.604
    40   6 C        2.762     0.268    22.483     7.765
    41   8 O        0.858    -0.522    24.281     6.607
    42   7 N        2.695    -0.162    24.503     7.352
    43   1 H        0.860     0.218     1.019     1.581
    44   6 C        3.798     0.045    19.818     6.339
    45   1 H        0.924     0.090     1.883     2.146
    46   6 C        3.809    -0.087    22.155     6.700
    47   1 H        0.924     0.051     2.307     2.375
    48   1 H        0.925     0.064     2.148     2.292
    49   6 C        2.687     0.363    20.842     7.471
    50   8 O        0.857    -0.612    26.408     6.890
    51   8 O        0.857    -0.613    26.442     6.894
    52   6 C        2.759     0.200    23.734     7.978
    53   8 O        0.857    -0.370    21.089     6.157
    54   7 N        2.633    -0.380    29.828     8.111
    55   1 H        0.860     0.167     1.291     1.780
    56   6 C        3.789     0.043    19.865     6.348
    57   1 H        0.924     0.079     1.992     2.207
    58   6 C        3.810    -0.074    21.906     6.662
    59   1 H        0.924     0.066     2.135     2.285
    60   1 H        0.924     0.075     2.031     2.229
    61   6 C        3.804    -0.078    21.980     6.674
    62   1 H        0.924     0.056     2.249     2.345
    63   1 H        0.925     0.055     2.262     2.352
    64   6 C        3.738    -0.022    21.050     6.547
    65   1 H        0.924     0.079     1.987     2.204
    66   1 H        0.925     0.091     1.867     2.137
    67   7 N        2.694    -0.152    24.287     7.319
    68   1 H        0.860     0.232     0.956     1.532
    69   6 C        2.733     0.233    23.109     7.870
    70   7 N        2.646    -0.268    26.930     7.707
    71   1 H        0.860     0.242     0.915     1.498
    72   1 H        0.860     0.240     0.924     1.506
    73   7 N        2.654    -0.272    27.045     7.724
    74   1 H        0.860     0.243     0.910     1.494
    75   1 H        0.860     0.250     0.883     1.472
    76   6 C        2.762     0.197    23.793     7.988
    77   8 O        0.858    -0.405    21.772     6.256
    78   7 N        2.661    -0.358    29.220     8.028
    79   1 H        0.860     0.170     1.274     1.768
    80   6 C        3.788     0.042    19.885     6.351
    81   1 H        0.924     0.079     1.986     2.204
    82   6 C        3.835    -0.070    21.814     6.645
    83   1 H        0.924     0.067     2.123     2.278
    84   1 H        0.924     0.075     2.027     2.226
    85   6 C        2.957     0.003    27.952     8.672
    86   6 C        2.923    -0.043    29.075     8.843
    87   1 H        0.926     0.033     2.540     2.492
    88   6 C        2.907    -0.036    28.900     8.815
    89   1 H        0.925     0.033     2.550     2.497
    90   6 C        2.910    -0.043    29.071     8.841
    91   1 H        0.926     0.034     2.531     2.488
    92   6 C        2.909    -0.041    29.027     8.834
    93   1 H        0.926     0.033     2.546     2.495
    94   6 C        2.920    -0.046    29.142     8.853
    95   1 H        0.926     0.045     2.385     2.415
    96   6 C        2.757     0.209    23.562     7.949
    97   8 O        0.856    -0.379    21.258     6.182
    98   7 N        2.631    -0.378    29.770     8.103
    99   1 H        0.860     0.165     1.306     1.790
   100   6 C        3.787     0.033    20.027     6.374
   101   1 H        0.925     0.040     2.453     2.449
   102   6 C        3.810    -0.042    21.326     6.574
   103   1 H        0.925     0.030     2.593     2.518
   104   1 H        0.925     0.048     2.340     2.392
   105   6 C        3.801    -0.090    22.213     6.710
   106   1 H        0.924     0.031     2.569     2.506
   107   1 H        0.923     0.034     2.537     2.491
   108   6 C        2.686     0.361    20.872     7.477
   109   8 O        0.857    -0.670    27.915     7.084
   110   8 O        0.857    -0.665    27.769     7.065
   111   6 C        2.750     0.267    22.489     7.765
   112   8 O        0.859    -0.539    24.665     6.659
   113   7 N        2.694    -0.154    24.325     7.325
   114   1 H        0.860     0.212     1.045     1.601
   115   6 C        3.791     0.022    20.209     6.402
   116   1 H        0.924     0.076     2.023     2.224
   117   6 C        3.862    -0.023    20.948     6.509
   118   1 H        0.925     0.066     2.134     2.285
   119   6 C        3.759    -0.113    22.710     6.794
   120   1 H        0.924     0.024     2.673     2.557
   121   1 H        0.925     0.066     2.131     2.283
   122   1 H        0.924     0.041     2.430     2.438
   123   6 C        3.756    -0.120    22.851     6.816
   124   1 H        0.924     0.041     2.441     2.443
   125   1 H        0.925     0.035     2.519     2.482
   126   1 H        0.925     0.069     2.100     2.266
   127   6 C        2.765     0.269    22.449     7.759
   128   8 O        0.860    -0.525    24.335     6.614
   129   7 N        2.689    -0.157    24.393     7.335
   130   1 H        0.860     0.226     0.983     1.553
   131   6 C        3.814     0.033    20.002     6.366
   132   1 H        0.925     0.078     2.001     2.212
   133   6 C        3.861    -0.017    20.837     6.492
   134   1 H        0.925     0.056     2.242     2.342
   135   6 C        3.766    -0.126    22.965     6.830
   136   1 H        0.925     0.048     2.349     2.397
   137   1 H        0.924     0.052     2.299     2.371
   138   1 H        0.925     0.068     2.104     2.268
   139   6 C        3.801    -0.059    21.634     6.622
   140   1 H        0.925     0.038     2.480     2.463
   141   1 H        0.925     0.050     2.320     2.382
   142   6 C        3.749    -0.113    22.722     6.799
   143   1 H        0.923     0.041     2.442     2.444
   144   1 H        0.924     0.050     2.323     2.384
   145   1 H        0.925     0.051     2.307     2.375
   146   6 C        2.761     0.211    23.525     7.943
   147   8 O        0.856    -0.373    21.151     6.166
   148   7 N        2.636    -0.362    29.328     8.043
   149   1 H        0.860     0.174     1.246     1.749
   150   6 C        3.783     0.042    19.882     6.352
   151   1 H        0.924     0.071     2.076     2.253
   152   6 C        3.814    -0.067    21.771     6.641
   153   1 H        0.925     0.056     2.248     2.345
   154   1 H        0.925     0.060     2.201     2.320
   155   6 C        2.956     0.004    27.932     8.669
   156   6 C        2.915    -0.043    29.078     8.843
   157   1 H        0.926     0.048     2.349     2.397
   158   6 C        2.908    -0.073    29.809     8.953
   159   1 H        0.925     0.043     2.406     2.426
   160   6 C        2.832     0.139    24.965     8.188
   161   8 O        1.659    -0.453    21.898     6.317
   162   1 H        0.806     0.359     0.568     1.183
   163   6 C        2.911    -0.058    29.442     8.897
   164   1 H        0.926     0.046     2.372     2.409
   165   6 C        2.913    -0.044    29.096     8.845
   166   1 H        0.925     0.046     2.366     2.405
   167   6 C        2.758     0.198    23.775     7.985
   168   8 O        0.856    -0.407    21.824     6.263
   169   7 N        2.632    -0.365    29.411     8.054
   170   1 H        0.860     0.177     1.233     1.739
   171   6 C        3.788     0.051    19.737     6.327
   172   1 H        0.925     0.048     2.343     2.394
   173   6 C        3.806    -0.074    21.916     6.664
   174   1 H        0.925     0.053     2.286     2.364
   175   1 H        0.925     0.074     2.040     2.234
   176   6 C        3.117     0.047    26.786     8.477
   177   7 N        1.909    -0.327    29.321     8.028
   178   6 C        3.006     0.076    26.294     8.411
   179   1 H        0.926     0.055     2.261     2.351
   180   7 N        2.821    -0.102    23.244     7.161
   181   1 H        0.860     0.219     1.013     1.577
   182   6 C        2.960    -0.037    28.928     8.822
   183   1 H        0.926     0.049     2.330     2.387
   184   6 C        2.758     0.196    23.810     7.991
   185   8 O        0.861    -0.379    21.259     6.182
   186   7 N        2.632    -0.383    29.891     8.120
   187   1 H        0.860     0.158     1.347     1.818
   188   6 C        3.791     0.023    20.206     6.402
   189   1 H        0.924     0.057     2.235     2.338
   190   6 C        3.856    -0.024    20.959     6.511
   191   1 H        0.925     0.048     2.341     2.393
   192   6 C        3.757    -0.100    22.461     6.757
   193   1 H        0.925     0.037     2.483     2.464
   194   1 H        0.925     0.047     2.354     2.399
   195   1 H        0.924     0.027     2.630     2.536
   196   6 C        3.806    -0.058    21.604     6.617
   197   1 H        0.925     0.021     2.717     2.578
   198   1 H        0.924     0.030     2.587     2.515
   199   6 C        3.749    -0.103    22.534     6.770
   200   1 H        0.925     0.032     2.563     2.503
   201   1 H        0.925     0.036     2.504     2.475
   202   1 H        0.924     0.034     2.536     2.491
   203   6 C        2.752     0.273    22.393     7.749
   204   8 O        0.858    -0.516    24.147     6.588
   205   7 N        2.689    -0.166    24.594     7.365
   206   1 H        0.860     0.228     0.974     1.546
   207   6 C        3.805     0.030    20.066     6.377
   208   1 H        0.924     0.064     2.155     2.296
   209   6 C        3.853    -0.017    20.843     6.493
   210   1 H        0.924     0.063     2.159     2.298
   211   6 C        3.758    -0.121    22.873     6.819
   212   1 H        0.925     0.044     2.393     2.419
   213   1 H        0.924     0.062     2.175     2.306
   214   1 H        0.924     0.037     2.496     2.470
   215   6 C        3.801    -0.048    21.428     6.591
   216   1 H        0.923     0.021     2.717     2.578
   217   1 H        0.924     0.035     2.521     2.483
   218   6 C        3.750    -0.108    22.635     6.785
   219   1 H        0.925     0.045     2.384     2.415
   220   1 H        0.923     0.032     2.561     2.503
   221   1 H        0.925     0.058     2.217     2.328
   222   6 C        2.758     0.195    23.845     7.996
   223   8 O        0.859    -0.371    21.102     6.159
   224   1 H        0.860     0.182     1.203     1.718
   225   1 H        0.923     0.056     2.247     2.344
   226   1 H        0.860     0.181     1.209     1.722
   227   1 H        0.923     0.071     2.074     2.252
   228   1 H        0.860     0.173     1.255     1.755
   229   1 H        0.923     0.058     2.227     2.334
   230   1 H        0.860     0.165     1.306     1.790
   231   1 H        0.923     0.034     2.528     2.487
   232   1 H        0.860     0.172     1.264     1.761
   233   1 H        0.923     0.064     2.150     2.293
   234   1 H        0.860     0.168     1.284     1.775
   235   1 H        0.923     0.053     2.278     2.361
   236   1 H        0.860     0.170     1.273     1.767
   237   1 H        0.923     0.065     2.143     2.289
   238   1 H        0.860     0.185     1.188     1.708
   239   1 H        0.923     0.081     1.971     2.196

 Mol. C6AA /au·bohr⁶  :     548524.173716
 Mol. C8AA /au·bohr⁸  :   12345085.677000
 Mol. α(0) /au        :       1126.457212


Wiberg/Mayer (AO) data.
largest (>0.10) Wiberg bond orders for each atom

 ---------------------------------------------------------------------------
     #   Z sym  total        # sym  WBO       # sym  WBO       # sym  WBO
 ---------------------------------------------------------------------------
     1   7 N    3.011 --     3 C    1.025     2 H    0.959   224 H    0.952
     2   1 H    0.975 --     1 N    0.959
     3   6 C    3.985 --     1 N    1.025    20 C    0.984     4 H    0.955
                             5 C    0.933
     4   1 H    0.996 --     3 C    0.955
     5   6 C    3.988 --     8 C    1.009     7 H    0.965     6 H    0.964
                             3 C    0.933
     6   1 H    0.994 --     5 C    0.964
     7   1 H    0.996 --     5 C    0.965
     8   6 C    3.985 --    18 C    1.408     9 C    1.402     5 C    1.009
     9   6 C    3.989 --    11 C    1.457     8 C    1.402    10 H    0.968
                            16 C    0.106
    10   1 H    0.999 --     9 C    0.968
    11   6 C    3.988 --     9 C    1.457    13 C    1.360    12 H    0.968
                            18 C    0.106
    12   1 H    0.999 --    11 C    0.968
    13   6 C    3.936 --    16 C    1.369    11 C    1.360    14 O    1.078
    14   8 O    2.086 --    13 C    1.078    15 H    0.835
    15   1 H    0.881 --    14 O    0.835
    16   6 C    3.985 --    18 C    1.448    13 C    1.369    17 H    0.967
                             9 C    0.106
    17   1 H    0.997 --    16 C    0.967
    18   6 C    3.987 --    16 C    1.448     8 C    1.408    19 H    0.966
                            11 C    0.106
    19   1 H    0.996 --    18 C    0.966
    20   6 C    3.884 --    21 O    1.894     3 C    0.984   225 H    0.938
    21   8 O    2.047 --    20 C    1.894
    22   7 N    3.011 --    24 C    1.017   226 H    0.953    23 H    0.950
    23   1 H    0.974 --    22 N    0.950
    24   6 C    3.983 --    22 N    1.017    26 C    0.965    25 H    0.958
                            40 C    0.938
    25   1 H    0.997 --    24 C    0.958
    26   6 C    3.989 --    29 C    1.009    24 C    0.965    27 H    0.965
                            28 H    0.962
    27   1 H    0.995 --    26 C    0.965
    28   1 H    0.998 --    26 C    0.962
    29   6 C    3.986 --    30 C    1.411    38 C    1.406    26 C    1.009
                            34 C    0.110
    30   6 C    3.988 --    32 C    1.438    29 C    1.411    31 H    0.969
                            36 C    0.111
    31   1 H    0.999 --    30 C    0.969
    32   6 C    3.988 --    34 C    1.440    30 C    1.438    33 H    0.969
                            38 C    0.111
    33   1 H    0.998 --    32 C    0.969
    34   6 C    3.988 --    32 C    1.440    36 C    1.431    35 H    0.970
                            29 C    0.110
    35   1 H    0.997 --    34 C    0.970
    36   6 C    3.990 --    38 C    1.447    34 C    1.431    37 H    0.970
                            30 C    0.111
    37   1 H    0.998 --    36 C    0.970
    38   6 C    3.991 --    36 C    1.447    29 C    1.406    39 H    0.970
                            32 C    0.111
    39   1 H    1.000 --    38 C    0.970
    40   6 C    3.938 --    41 O    1.623    42 N    1.301    24 C    0.938
    41   8 O    1.924 --    40 C    1.623    42 N    0.193
    42   7 N    3.470 --    40 C    1.301    44 C    0.986    43 H    0.909
                            41 O    0.193
    43   1 H    0.952 --    42 N    0.909
    44   6 C    3.971 --    52 C    1.000    42 N    0.986    46 C    0.944
                            45 H    0.925
    45   1 H    0.991 --    44 C    0.925
    46   6 C    3.981 --    47 H    0.976    48 H    0.959    49 C    0.947
                            44 C    0.944
    47   1 H    0.997 --    46 C    0.976
    48   1 H    0.996 --    46 C    0.959
    49   6 C    3.939 --    50 O    1.495    51 O    1.463    46 C    0.947
    50   8 O    1.850 --    49 C    1.495    51 O    0.213
    51   8 O    1.836 --    49 C    1.463    50 O    0.213
    52   6 C    3.883 --    53 O    1.878    44 C    1.000   227 H    0.938
    53   8 O    2.039 --    52 C    1.878
    54   7 N    3.024 --    56 C    1.026    55 H    0.956   228 H    0.955
    55   1 H    0.972 --    54 N    0.956
    56   6 C    3.980 --    54 N    1.026    76 C    0.970    58 C    0.970
                            57 H    0.930
    57   1 H    0.993 --    56 C    0.930
    58   6 C    3.987 --    61 C    1.004    56 C    0.970    59 H    0.970
                            60 H    0.964
    59   1 H    0.996 --    58 C    0.970
    60   1 H    0.994 --    58 C    0.964
    61   6 C    3.990 --    58 C    1.004    64 C    0.997    62 H    0.972
                            63 H    0.971
    62   1 H    0.997 --    61 C    0.972
    63   1 H    0.997 --    61 C    0.971
    64   6 C    3.955 --    61 C    0.997    67 N    0.984    66 H    0.966
                            65 H    0.963
    65   1 H    0.993 --    64 C    0.963
    66   1 H    0.992 --    64 C    0.966
    67   7 N    3.447 --    69 C    1.293    64 C    0.984    68 H    0.915
                            73 N    0.100
    68   1 H    0.946 --    67 N    0.915
    69   6 C    3.975 --    70 N    1.326    73 N    1.325    67 N    1.293
    70   7 N    3.389 --    69 C    1.326    71 H    0.918    72 H    0.872
                            73 N    0.105
    71   1 H    0.941 --    70 N    0.918
    72   1 H    0.942 --    70 N    0.872
    73   7 N    3.385 --    69 C    1.325    74 H    0.916    75 H    0.869
                            70 N    0.105    67 N    0.100
    74   1 H    0.941 --    73 N    0.916
    75   1 H    0.937 --    73 N    0.869
    76   6 C    3.870 --    77 O    1.875    56 C    0.970   229 H    0.935
    77   8 O    2.024 --    76 C    1.875
    78   7 N    3.015 --    80 C    1.025   230 H    0.958    79 H    0.954
    79   1 H    0.971 --    78 N    0.954
    80   6 C    3.985 --    78 N    1.025    96 C    0.977    82 C    0.949
                            81 H    0.938
    81   1 H    0.994 --    80 C    0.938
    82   6 C    3.986 --    85 C    1.005    84 H    0.965    83 H    0.963
                            80 C    0.949
    83   1 H    0.995 --    82 C    0.963
    84   1 H    0.994 --    82 C    0.965
    85   6 C    3.985 --    94 C    1.422    86 C    1.399    82 C    1.005
                            90 C    0.112
    86   6 C    3.990 --    88 C    1.453    85 C    1.399    87 H    0.969
                            92 C    0.113
    87   1 H    0.999 --    86 C    0.969
    88   6 C    3.990 --    86 C    1.453    90 C    1.431    89 H    0.966
                            94 C    0.108
    89   1 H    0.999 --    88 C    0.966
    90   6 C    3.989 --    92 C    1.441    88 C    1.431    91 H    0.967
                            85 C    0.112
    91   1 H    0.998 --    90 C    0.967
    92   6 C    3.990 --    90 C    1.441    94 C    1.436    93 H    0.973
                            86 C    0.113
    93   1 H    0.999 --    92 C    0.973
    94   6 C    3.988 --    92 C    1.436    85 C    1.422    95 H    0.969
                            88 C    0.108
    95   1 H    0.998 --    94 C    0.969
    96   6 C    3.881 --    97 O    1.893    80 C    0.977   231 H    0.937
    97   8 O    2.052 --    96 C    1.893
    98   7 N    3.010 --   100 C    1.021   232 H    0.956    99 H    0.955
    99   1 H    0.973 --    98 N    0.955
   100   6 C    3.982 --    98 N    1.021   102 C    0.975   101 H    0.952
                           111 C    0.938
   101   1 H    0.997 --   100 C    0.952
   102   6 C    3.996 --   105 C    1.004   100 C    0.975   103 H    0.975
                           104 H    0.972
   103   1 H    0.999 --   102 C    0.975
   104   1 H    0.998 --   102 C    0.972
   105   6 C    3.993 --   102 C    1.004   106 H    0.975   107 H    0.958
                           108 C    0.943
   106   1 H    0.999 --   105 C    0.975
   107   1 H    0.999 --   105 C    0.958
   108   6 C    3.930 --   110 O    1.486   109 O    1.479   105 C    0.943
   109   8 O    1.762 --   108 C    1.479   110 O    0.212
   110   8 O    1.774 --   108 C    1.486   109 O    0.212
   111   6 C    3.943 --   112 O    1.604   113 N    1.312   100 C    0.938
   112   8 O    1.905 --   111 C    1.604   113 N    0.191
   113   7 N    3.479 --   111 C    1.312   115 C    0.985   114 H    0.910
                           112 O    0.191
   114   1 H    0.955 --   113 N    0.910
   115   6 C    3.964 --   113 N    0.985   117 C    0.958   116 H    0.946
                           127 C    0.943
   116   1 H    0.994 --   115 C    0.946
   117   6 C    3.989 --   123 C    1.008   119 C    1.005   118 H    0.961
                           115 C    0.958
   118   1 H    0.995 --   117 C    0.961
   119   6 C    3.990 --   117 C    1.005   120 H    0.984   122 H    0.980
                           121 H    0.976
   120   1 H    0.999 --   119 C    0.984
   121   1 H    0.995 --   119 C    0.976
   122   1 H    0.998 --   119 C    0.980
   123   6 C    3.990 --   117 C    1.008   125 H    0.984   126 H    0.981
                           124 H    0.981
   124   1 H    0.998 --   123 C    0.981
   125   1 H    0.999 --   123 C    0.984
   126   1 H    0.995 --   123 C    0.981
   127   6 C    3.950 --   128 O    1.615   129 N    1.312   115 C    0.943
   128   8 O    1.925 --   127 C    1.615   129 N    0.191
   129   7 N    3.463 --   127 C    1.312   131 C    0.972   130 H    0.904
                           128 O    0.191
   130   1 H    0.949 --   129 N    0.904
   131   6 C    3.962 --   146 C    0.985   129 N    0.972   132 H    0.949
                           133 C    0.939
   132   1 H    0.994 --   131 C    0.949
   133   6 C    3.979 --   135 C    0.996   139 C    0.996   134 H    0.966
                           131 C    0.939
   134   1 H    0.996 --   133 C    0.966
   135   6 C    3.987 --   133 C    0.996   136 H    0.982   138 H    0.977
                           137 H    0.977
   136   1 H    0.998 --   135 C    0.982
   137   1 H    0.997 --   135 C    0.977
   138   1 H    0.995 --   135 C    0.977
   139   6 C    3.992 --   142 C    1.018   133 C    0.996   140 H    0.976
                           141 H    0.973
   140   1 H    0.999 --   139 C    0.976
   141   1 H    0.997 --   139 C    0.973
   142   6 C    3.992 --   139 C    1.018   145 H    0.985   143 H    0.985
                           144 H    0.984
   143   1 H    0.998 --   142 C    0.985
   144   1 H    0.998 --   142 C    0.984
   145   1 H    0.997 --   142 C    0.985
   146   6 C    3.890 --   147 O    1.887   131 C    0.985   233 H    0.937
   147   8 O    2.048 --   146 C    1.887
   148   7 N    3.041 --   150 C    1.029   234 H    0.957   149 H    0.954
   149   1 H    0.970 --   148 N    0.954
   150   6 C    3.984 --   148 N    1.029   167 C    0.975   152 C    0.957
                           151 H    0.934
   151   1 H    0.995 --   150 C    0.934
   152   6 C    3.988 --   155 C    1.007   154 H    0.967   153 H    0.959
                           150 C    0.957
   153   1 H    0.996 --   152 C    0.959
   154   1 H    0.996 --   152 C    0.967
   155   6 C    3.986 --   156 C    1.412   165 C    1.401   152 C    1.007
   156   6 C    3.988 --   158 C    1.447   155 C    1.412   157 H    0.968
                           163 C    0.106
   157   1 H    0.998 --   156 C    0.968
   158   6 C    3.985 --   156 C    1.447   160 C    1.372   159 H    0.966
                           165 C    0.109
   159   1 H    0.998 --   158 C    0.966
   160   6 C    3.935 --   158 C    1.372   163 C    1.368   161 O    1.065
   161   8 O    2.067 --   160 C    1.065   162 H    0.849
   162   1 H    0.871 --   161 O    0.849
   163   6 C    3.986 --   165 C    1.453   160 C    1.368   164 H    0.965
                           156 C    0.106
   164   1 H    0.997 --   163 C    0.965
   165   6 C    3.985 --   163 C    1.453   155 C    1.401   166 H    0.965
                           158 C    0.109
   166   1 H    0.997 --   165 C    0.965
   167   6 C    3.873 --   168 O    1.867   150 C    0.975   235 H    0.936
   168   8 O    2.025 --   167 C    1.867
   169   7 N    3.020 --   171 C    1.028   236 H    0.957   170 H    0.925
   170   1 H    0.969 --   169 N    0.925
   171   6 C    3.986 --   169 N    1.028   184 C    0.993   172 H    0.959
                           173 C    0.926
   172   1 H    0.997 --   171 C    0.959
   173   6 C    3.989 --   176 C    1.010   174 H    0.968   175 H    0.965
                           171 C    0.926
   174   1 H    0.997 --   173 C    0.968
   175   1 H    0.994 --   173 C    0.965
   176   6 C    3.974 --   182 C    1.558   177 N    1.282   173 C    1.010
   177   7 N    2.989 --   178 C    1.510   176 C    1.282   180 N    0.104
   178   6 C    3.955 --   177 N    1.510   180 N    1.302   179 H    0.963
                           182 C    0.125
   179   1 H    0.997 --   178 C    0.963
   180   7 N    3.594 --   178 C    1.302   182 C    1.197   181 H    0.923
                           177 N    0.104
   181   1 H    0.952 --   180 N    0.923
   182   6 C    3.933 --   176 C    1.558   180 N    1.197   183 H    0.961
                           178 C    0.125
   183   1 H    0.998 --   182 C    0.961
   184   6 C    3.868 --   185 O    1.865   171 C    0.993   237 H    0.941
   185   8 O    2.036 --   184 C    1.865
   186   7 N    3.008 --   188 C    1.025   238 H    0.950   187 H    0.949
   187   1 H    0.975 --   186 N    0.949
   188   6 C    3.980 --   186 N    1.025   190 C    0.960   189 H    0.941
                           203 C    0.935
   189   1 H    0.996 --   188 C    0.941
   190   6 C    3.992 --   192 C    1.006   196 C    0.994   191 H    0.964
                           188 C    0.960
   191   1 H    0.997 --   190 C    0.964
   192   6 C    3.996 --   190 C    1.006   193 H    0.983   195 H    0.978
                           194 H    0.977
   193   1 H    0.999 --   192 C    0.983
   194   1 H    0.998 --   192 C    0.977
   195   1 H    0.999 --   192 C    0.978
   196   6 C    3.994 --   199 C    1.017   190 C    0.994   197 H    0.976
                           198 H    0.974
   197   1 H    1.000 --   196 C    0.976
   198   1 H    0.999 --   196 C    0.974
   199   6 C    3.995 --   196 C    1.017   200 H    0.988   201 H    0.986
                           202 H    0.985
   200   1 H    0.999 --   199 C    0.988
   201   1 H    0.998 --   199 C    0.986
   202   1 H    0.999 --   199 C    0.985
   203   6 C    3.944 --   204 O    1.615   205 N    1.303   188 C    0.935
   204   8 O    1.931 --   203 C    1.615   205 N    0.193
   205   7 N    3.474 --   203 C    1.303   207 C    0.979   206 H    0.899
                           204 O    0.193
   206   1 H    0.948 --   205 N    0.899
   207   6 C    3.964 --   222 C    0.981   205 N    0.979   208 H    0.953
Note: The following floating-point exceptions are signalling: IEEE_UNDERFLOW_FLAG IEEE_DENORMAL
normal termination of xtb
                           209 C    0.942
   208   1 H    0.996 --   207 C    0.953
   209   6 C    3.982 --   211 C    1.005   215 C    0.996   210 H    0.953
                           207 C    0.942
   210   1 H    0.996 --   209 C    0.953
   211   6 C    3.991 --   209 C    1.005   214 H    0.985   212 H    0.984
                           213 H    0.980
   212   1 H    0.998 --   211 C    0.984
   213   1 H    0.996 --   211 C    0.980
   214   1 H    0.999 --   211 C    0.985
   215   6 C    3.993 --   218 C    1.013   209 C    0.996   217 H    0.974
                           216 H    0.965
   216   1 H    0.999 --   215 C    0.965
   217   1 H    0.999 --   215 C    0.974
   218   6 C    3.993 --   215 C    1.013   220 H    0.988   219 H    0.984
                           221 H    0.983
   219   1 H    0.998 --   218 C    0.984
   220   1 H    0.998 --   218 C    0.988
   221   1 H    0.997 --   218 C    0.983
   222   6 C    3.864 --   223 O    1.876   207 C    0.981   239 H    0.938
   223   8 O    2.043 --   222 C    1.876
   224   1 H    0.967 --     1 N    0.952
   225   1 H    0.997 --    20 C    0.938
   226   1 H    0.967 --    22 N    0.953
   227   1 H    0.994 --    52 C    0.938
   228   1 H    0.970 --    54 N    0.955
   229   1 H    0.996 --    76 C    0.935
   230   1 H    0.972 --    78 N    0.958
   231   1 H    0.999 --    96 C    0.937
   232   1 H    0.971 --    98 N    0.956
   233   1 H    0.996 --   146 C    0.937
   234   1 H    0.972 --   148 N    0.957
   235   1 H    0.997 --   167 C    0.936
   236   1 H    0.971 --   169 N    0.957
   237   1 H    0.996 --   184 C    0.941
   238   1 H    0.966 --   186 N    0.950
   239   1 H    0.993 --   222 C    0.938
 ---------------------------------------------------------------------------

Topologies differ in total number of bonds
Writing topology from bond orders to xtbtopo.mol

molecular dipole:
                 x           y           z       tot (Debye)
 q only:      -57.935     -37.775    -102.356
   full:      -57.744     -38.240    -102.926     315.324
molecular quadrupole (traceless):
                xx          xy          yy          xz          yz          zz
 q only:     2742.703   -3286.148    5500.258   -8982.758   -5998.037   -8242.962
  q+dip:     2807.220   -3292.443    5522.556   -8973.593   -6064.023   -8329.775
   full:     2812.227   -3291.470    5521.781   -8974.028   -6060.655   -8334.009


           -------------------------------------------------
          | TOTAL ENERGY             -357.428767761065 Eh   |
          | GRADIENT NORM               0.308239828718 Eh/α |
          | HOMO-LUMO GAP               1.264301633903 eV   |
           -------------------------------------------------

------------------------------------------------------------------------
 * finished run on 2026/01/05 at 09:06:52.443     
------------------------------------------------------------------------
 total:
 * wall-time:     0 d,  0 h,  0 min,  1.687 sec
 *  cpu-time:     0 d,  0 h,  0 min, 24.272 sec
 * ratio c/w:    14.385 speedup
 SCF:
 * wall-time:     0 d,  0 h,  0 min,  1.620 sec
 *  cpu-time:     0 d,  0 h,  0 min, 23.254 sec
 * ratio c/w:    14.358 speedup

