      -----------------------------------------------------------      
     |                   =====================                   |     
     |                           x T B                           |     
     |                   =====================                   |     
     |                         S. Grimme                         |     
     |          Mulliken Center for Theoretical Chemistry        |     
     |                    University of Bonn                     |     
      -----------------------------------------------------------      

   * xtb version 6.7.1 (edcfbbe) compiled by 'conda@c0858423619e' on 2025-09-04

   xtb is free software: you can redistribute it and/or modify it under
   the terms of the GNU Lesser General Public License as published by
   the Free Software Foundation, either version 3 of the License, or
   (at your option) any later version.
   
   xtb is distributed in the hope that it will be useful,
   but WITHOUT ANY WARRANTY; without even the implied warranty of
   MERCHANTABILITY or FITNESS FOR A PARTICULAR PURPOSE.  See the
   GNU Lesser General Public License for more details.
   
   Cite this work as:
   * C. Bannwarth, E. Caldeweyher, S. Ehlert, A. Hansen, P. Pracht,
     J. Seibert, S. Spicher, S. Grimme, WIREs Comput. Mol. Sci., 2020, 11,
     e01493. DOI: 10.1002/wcms.1493
   
   for GFN2-xTB:
   * C. Bannwarth, S. Ehlert and S. Grimme., J. Chem. Theory Comput., 2019,
     15, 1652-1671. DOI: 10.1021/acs.jctc.8b01176
   for GFN1-xTB:
   * S. Grimme, C. Bannwarth, P. Shushkov, J. Chem. Theory Comput., 2017,
     13, 1989-2009. DOI: 10.1021/acs.jctc.7b00118
   for GFN0-xTB:
   * P. Pracht, E. Caldeweyher, S. Ehlert, S. Grimme, ChemRxiv, 2019, preprint.
     DOI: 10.26434/chemrxiv.8326202.v1
   for GFN-FF:
   * S. Spicher and S. Grimme, Angew. Chem. Int. Ed., 2020, 59, 15665-15673.
     DOI: 10.1002/anie.202004239
   
   for ALPB and GBSA implicit solvation:
   * S. Ehlert, M. Stahn, S. Spicher, S. Grimme, J. Chem. Theory Comput.,
     2021, 17, 4250-4261. DOI: 10.1021/acs.jctc.1c00471
   
   for ddCOSMO and CPCM-X implicit solvation:
   * M. Stahn, S. Ehlert, S. Grimme, J. Phys. Chem. A,
     2023, XX, XXXX-XXXX. DOI: 10.1021/acs.jpca.3c04382
   
   for DFT-D4:
   * E. Caldeweyher, C. Bannwarth and S. Grimme, J. Chem. Phys., 2017,
     147, 034112. DOI: 10.1063/1.4993215
   * E. Caldeweyher, S. Ehlert, A. Hansen, H. Neugebauer, S. Spicher,
     C. Bannwarth and S. Grimme, J. Chem. Phys., 2019, 150, 154122.
     DOI: 10.1063/1.5090222
   * E. Caldeweyher, J.-M. Mewes, S. Ehlert and S. Grimme, Phys. Chem. Chem. Phys.
     2020, 22, 8499-8512. DOI: 10.1039/D0CP00502A
   
   for sTDA-xTB:
   * S. Grimme and C. Bannwarth, J. Chem. Phys., 2016, 145, 054103.
     DOI: 10.1063/1.4959605
   
   in the mass-spec context:
   * V. Asgeirsson, C. Bauer and S. Grimme, Chem. Sci., 2017, 8, 4879.
     DOI: 10.1039/c7sc00601b
   * J. Koopman and S. Grimme, ACS Omega 2019, 4, 12, 15120-15133.
     DOI: 10.1021/acsomega.9b02011
   
   for metadynamics refer to:
   * S. Grimme, J. Chem. Theory Comput., 2019, 155, 2847-2862
     DOI: 10.1021/acs.jctc.9b00143
   
   for SPH calculations refer to:
   * S. Spicher and S. Grimme, J. Chem. Theory Comput., 2021, 17, 1701-1714
     DOI: 10.1021/acs.jctc.0c01306
   
   for ONIOM refer to:
   * C. Plett, A. Katbashev, S. Ehlert, S. Grimme, M. Bursch,
     Phys. Chem. Chem. Phys., 2023, 25, 17860-17868. DOI: 10.1039/D3CP02178E
   
   for DIPRO refer to:
   * J. Kohn, N. Gildemeister, S. Grimme, D. Fazzi, A. Hansen,
     J. Chem. Phys., 2023, just accepted.
   
   for PTB refer to:
   * S. Grimme, M. Mueller, A. Hansen, J. Chem. Phys., 2023, 158, 124111.
     DOI: 10.1063/5.0137838
   
   with help from (in alphabetical order)
   P. Atkinson, C. Bannwarth, F. Bohle, G. Brandenburg, E. Caldeweyher
   M. Checinski, S. Dohm, S. Ehlert, S. Ehrlich, I. Gerasimov, C. Hölzer
   A. Katbashev, J. Kohn, J. Koopman, C. Lavigne, S. Lehtola, F. März, M. Müller,
   F. Musil, H. Neugebauer, J. Pisarek, C. Plett, P. Pracht, F. Pultar,
   J. Seibert, P. Shushkov, S. Spicher, M. Stahn, M. Steiner, T. Strunk,
   J. Stückrath, T. Rose, and J. Unsleber
   
 * started run on 2026/01/05 at 09:07:37.544     
   ID    Z sym.   atoms
    1    7 N      1, 21, 41, 62, 70, 73, 79, 98
    2    1 H      2, 4, 6, 7, 10, 12, 14, 16, 18, 22, 24, 26, 27, 30, 32, 34,
                  36, 38, 42, 44, 46, 47, 50, 52, 55, 57, 59, 63, 65, 67, 68,
                  72, 74, 76, 80, 82, 84, 86-88, 90, 91, 93-95, 99, 101, 103,
                  105-107, 109, 110, 112-114, 117-126
    3    6 C      3, 5, 8, 9, 11, 13, 15, 17, 19, 23, 25, 28, 29, 31, 33, 35,
                  37, 39, 43, 45, 48, 49, 51, 53, 56, 58, 60, 64, 66, 69, 71,
                  75, 77, 81, 83, 85, 89, 92, 96, 100, 102, 104, 108, 111, 115
    4    8 O      20, 40, 54, 61, 78, 97, 116

           -------------------------------------------------
          |                Calculation Setup                |
           -------------------------------------------------

          program call               : xtb /home/antonio_mesquita/Documentos/gmx_ISA_project/testes_arquivos_primeiros/gmx_ISA_testes/testes_qm_xtb/QM_analysis/QM_FRAMES_CAPPED/frame_4200ps/residues_pocket_capped_4200ps.xyz --gfn 2 --alpb water --chrg 0 --etemp 1500 --cycles 1000
          coordinate file            : /home/antonio_mesquita/Documentos/gmx_ISA_project/testes_arquivos_primeiros/gmx_ISA_testes/testes_qm_xtb/QM_analysis/QM_FRAMES_CAPPED/frame_4200ps/residues_pocket_capped_4200ps.xyz
          omp threads                :                    16


molecular fragmentation (1/2 indicates fragments):
111111111111111111112222222222222222222222222222222222222222222222222222
222222222222222222222222222222222222222222221122222222
# atoms in fragment 1/2:    22   104
 fragment masses (1/2) :      149.19      681.87
CMA distance (Bohr)    :  12.767
constraining FC (au)   :  0.0500

           -------------------------------------------------
          |                 G F N 2 - x T B                 |
           -------------------------------------------------

        Reference                      10.1021/acs.jctc.8b01176
      * Hamiltonian:
        H0-scaling (s, p, d)           1.850000    2.230000    2.230000
        zeta-weighting                 0.500000
      * Dispersion:
        s8                             2.700000
        a1                             0.520000
        a2                             5.000000
        s9                             5.000000
      * Repulsion:
        kExp                           1.500000    1.000000
        rExp                           1.000000
      * Coulomb:
        alpha                          2.000000
        third order                    shell-resolved
        anisotropic                    true
        a3                             3.000000
        a5                             4.000000
        cn-shift                       1.200000
        cn-exp                         4.000000
        max-rad                        5.000000

      * Solvation model:               ALPB
        Solvent                        water
        Parameter file                 internal GFN2-xTB/ALPB
        Dielectric constant                8.0200E+01
        Reference state                gsolv [1 M gas/solution]
        Free energy shift                  1.0808E-03 Eh       6.7819E-01 kcal/mol
        Temperature                        2.9815E+02 K
        Density                            1.0000E+00 kg/L
        Solvent mass                       1.8000E+01 g/mol
        Interaction kernel             P16
        Born radius scaling (c1)           1.4744E+00
        Born radii integrator          GBOBC
        Born offset                        0.0000E+00 a0       0.0000E+00 AA
        H-bond correction              true
        Ion screening                  false
        Surface tension                    1.0000E-05 Eh       1.5569E+01 dyn/cm
        Grid points                               230 per atom

          ...................................................
          :                      SETUP                      :
          :.................................................:
          :  # basis functions                 306          :
          :  # atomic orbitals                 306          :
          :  # shells                          186          :
          :  # electrons                       328          :
          :  max. iterations                   250          :
          :  Hamiltonian                  GFN2-xTB          :
          :  restarted?                      false          :
          :  GBSA solvation                   true          :
          :  PC potential                    false          :
          :  electronic temp.         1500.0000000     K    :
          :  accuracy                    1.0000000          :
          :  -> integral cutoff          0.2500000E+02      :
          :  -> integral neglect         0.1000000E-07      :
          :  -> SCF convergence          0.1000000E-05 Eh   :
          :  -> wf. convergence          0.1000000E-03 e    :
          :  Broyden damping             0.4000000          :
          :  net charge                          0          :
          :  unpaired electrons                  0          :
          ...................................................

 iter      E             dE          RMSdq      gap      omega  full diag
   1   -183.6971029 -0.183697E+03  0.420E+00    1.90       0.0  T
   2   -183.9931967 -0.296094E+00  0.221E+00    1.15       1.0  T
   3   -184.0013270 -0.813025E-02  0.122E+00    1.68       1.0  T
   4   -184.0282176 -0.268906E-01  0.229E-01    1.18       1.0  T
   5   -184.0316090 -0.339144E-02  0.882E-02    1.27       1.0  T
   6   -184.0318081 -0.199073E-03  0.499E-02    1.27       1.0  T
   7   -184.0318798 -0.716885E-04  0.190E-02    1.27       1.0  T
   8   -184.0318845 -0.471226E-05  0.590E-03    1.27       1.5  T
   9   -184.0318853 -0.778051E-06  0.305E-03    1.27       2.9  T
  10   -184.0318855 -0.242947E-06  0.140E-03    1.27       6.4  T
  11   -184.0318856 -0.447861E-07  0.560E-04    1.27      15.9  T
  12   -184.0318856 -0.840492E-08  0.236E-04    1.27      37.8  T

   *** convergence criteria satisfied after 12 iterations ***

         #    Occupation            Energy/Eh            Energy/eV
      -------------------------------------------------------------
         1        2.0000           -0.7273593             -19.7925
       ...           ...                  ...                  ...
       158        2.0000           -0.3834008             -10.4329
       159        2.0000           -0.3751831             -10.2093
       160        1.9984           -0.3459961              -9.4150
       161        1.9967           -0.3424727              -9.3192
       162        1.9966           -0.3423793              -9.3166
       163        1.9931           -0.3390107              -9.2249
       164        1.9852           -0.3353650              -9.1257 (HOMO)
       165        0.0146           -0.2887368              -7.8569 (LUMO)
       166        0.0047           -0.2832962              -7.7089
       167        0.0044           -0.2830082              -7.7010
       168        0.0042           -0.2827749              -7.6947
       169        0.0022           -0.2796312              -7.6092
       ...           ...                  ...                  ...
       306                          0.6387125              17.3803
      -------------------------------------------------------------
                  HL-Gap            0.0466282 Eh            1.2688 eV
             Fermi-level           -0.3120819 Eh           -8.4922 eV

 SCC (total)                   0 d,  0 h,  0 min,  0.475 sec
 SCC setup                      ...        0 min,  0.008 sec (  1.630%)
 Dispersion                     ...        0 min,  0.009 sec (  1.995%)
 classical contributions        ...        0 min,  0.001 sec (  0.208%)
 integral evaluation            ...        0 min,  0.037 sec (  7.829%)
 iterations                     ...        0 min,  0.311 sec ( 65.509%)
 molecular gradient             ...        0 min,  0.106 sec ( 22.392%)
 printout                       ...        0 min,  0.002 sec (  0.432%)

         :::::::::::::::::::::::::::::::::::::::::::::::::::::
         ::                     SUMMARY                     ::
         :::::::::::::::::::::::::::::::::::::::::::::::::::::
         :: total energy            -181.578387496810 Eh    ::
         :: total w/o Gsasa/hb      -181.558760928435 Eh    ::
         :: gradient norm              0.234714313981 Eh/a0 ::
         :: HOMO-LUMO gap              1.268818871508 eV    ::
         ::.................................................::
         :: SCC energy              -184.025159809093 Eh    ::
         :: -> isotropic ES            0.313011473031 Eh    ::
         :: -> anisotropic ES          0.036361305820 Eh    ::
         :: -> anisotropic XC          0.097486338497 Eh    ::
         :: -> dispersion             -0.128490622473 Eh    ::
         :: -> Gsolv                  -0.063066220240 Eh    ::
         ::    -> Gelec               -0.043439651865 Eh    ::
         ::    -> Gsasa                0.001758642286 Eh    ::
         ::    -> Ghb                 -0.022465970358 Eh    ::
         ::    -> Gshift               0.001080759698 Eh    ::
         :: repulsion energy           2.446772312284 Eh    ::
         :: add. restraining           0.000000000000 Eh    ::
         :: total charge              -0.000000000006 e     ::
         :::::::::::::::::::::::::::::::::::::::::::::::::::::

           -------------------------------------------------
          |                Property Printout                |
           -------------------------------------------------

    * Orbital Energies and Occupations

         #    Occupation            Energy/Eh            Energy/eV
      -------------------------------------------------------------
         1        2.0000           -0.7273593             -19.7925
       ...           ...                  ...                  ...
       152        2.0000           -0.3967475             -10.7961
       153        2.0000           -0.3956894             -10.7673
       154        2.0000           -0.3934711             -10.7069
       155        2.0000           -0.3911925             -10.6449
       156        2.0000           -0.3883657             -10.5680
       157        2.0000           -0.3882480             -10.5648
       158        2.0000           -0.3834008             -10.4329
       159        2.0000           -0.3751831             -10.2093
       160        1.9984           -0.3459961              -9.4150
       161        1.9967           -0.3424727              -9.3192
       162        1.9966           -0.3423793              -9.3166
       163        1.9931           -0.3390107              -9.2249
       164        1.9852           -0.3353650              -9.1257 (HOMO)
       165        0.0146           -0.2887368              -7.8569 (LUMO)
       166        0.0047           -0.2832962              -7.7089
       167        0.0044           -0.2830082              -7.7010
       168        0.0042           -0.2827749              -7.6947
       169        0.0022           -0.2796312              -7.6092
       170                         -0.2291673              -6.2360
       171                         -0.2254017              -6.1335
       172                         -0.2243139              -6.1039
       173                         -0.2208086              -6.0085
       174                         -0.2185378              -5.9467
       175                         -0.2150289              -5.8512
       ...                                ...                  ...
       306                          0.6387125              17.3803
      -------------------------------------------------------------
                  HL-Gap            0.0466282 Eh            1.2688 eV
             Fermi-level           -0.3120819 Eh           -8.4922 eV

     #   Z          covCN         q      C6AA      α(0)
     1   7 N        2.639    -0.365    29.411     8.054
     2   1 H        0.860     0.164     1.309     1.792
     3   6 C        3.783     0.043    19.862     6.348
     4   1 H        0.924     0.080     1.982     2.202
     5   6 C        3.818    -0.077    21.965     6.670
     6   1 H        0.925     0.072     2.064     2.246
     7   1 H        0.924     0.052     2.298     2.371
     8   6 C        2.966     0.013    27.718     8.636
     9   6 C        2.919    -0.040    29.004     8.831
    10   1 H        0.926     0.039     2.456     2.451
    11   6 C        2.910    -0.038    28.934     8.820
    12   1 H        0.925     0.040     2.448     2.447
    13   6 C        2.908    -0.043    29.063     8.840
    14   1 H        0.926     0.042     2.424     2.435
    15   6 C        2.926    -0.037    28.915     8.818
    16   1 H        0.926     0.030     2.588     2.516
    17   6 C        2.907    -0.043    29.079     8.842
    18   1 H        0.926     0.029     2.604     2.524
    19   6 C        2.757     0.206    23.627     7.960
    20   8 O        0.856    -0.398    21.644     6.237
    21   7 N        2.652    -0.365    29.420     8.056
    22   1 H        0.860     0.158     1.347     1.818
    23   6 C        3.786     0.046    19.813     6.340
    24   1 H        0.924     0.065     2.136     2.286
    25   6 C        3.832    -0.072    21.847     6.650
    26   1 H        0.925     0.055     2.255     2.348
    27   1 H        0.925     0.063     2.161     2.299
    28   6 C        2.961     0.005    27.916     8.666
    29   6 C        2.916    -0.045    29.106     8.847
    30   1 H        0.926     0.031     2.571     2.507
    31   6 C        2.916    -0.039    28.980     8.828
    32   1 H        0.926     0.034     2.535     2.490
    33   6 C        2.903    -0.044    29.083     8.843
    34   1 H        0.925     0.040     2.452     2.449
    35   6 C        2.917    -0.039    28.964     8.825
    36   1 H        0.926     0.039     2.460     2.453
    37   6 C        2.913    -0.044    29.100     8.846
    38   1 H        0.925     0.043     2.415     2.430
    39   6 C        2.756     0.207    23.599     7.955
    40   8 O        0.857    -0.373    21.152     6.166
    41   7 N        2.636    -0.372    29.595     8.080
    42   1 H        0.860     0.171     1.269     1.764
    43   6 C        3.786     0.042    19.888     6.352
    44   1 H        0.924     0.075     2.032     2.229
    45   6 C        3.820    -0.064    21.715     6.632
    46   1 H        0.925     0.047     2.357     2.401
    47   1 H        0.925     0.051     2.306     2.375
    48   6 C        2.984     0.000    28.012     8.682
    49   6 C        2.905    -0.045    29.115     8.848
    50   1 H        0.925     0.047     2.355     2.400
    51   6 C        2.920    -0.061    29.520     8.910
    52   1 H        0.926     0.046     2.367     2.406
    53   6 C        2.839     0.146    24.826     8.165
    54   8 O        1.660    -0.465    22.160     6.355
    55   1 H        0.805     0.374     0.534     1.148
    56   6 C        2.910    -0.074    29.834     8.956
    57   1 H        0.925     0.050     2.319     2.381
    58   6 C        2.911    -0.042    29.047     8.838
    59   1 H        0.925     0.051     2.303     2.373
    60   6 C        2.759     0.202    23.697     7.972
    61   8 O        0.856    -0.405    21.786     6.258
    62   7 N        2.649    -0.359    29.265     8.034
    63   1 H        0.860     0.184     1.192     1.710
    64   6 C        3.785     0.049    19.767     6.333
    65   1 H        0.924     0.045     2.378     2.411
    66   6 C        3.810    -0.074    21.909     6.663
    67   1 H        0.925     0.054     2.268     2.355
    68   1 H        0.924     0.056     2.251     2.346
    69   6 C        3.278     0.044    25.635     8.151
    70   7 N        1.858    -0.326    29.320     8.026
    71   6 C        3.211     0.086    25.468     8.214
    72   1 H        0.925     0.040     2.445     2.445
    73   7 N        2.804    -0.103    23.247     7.161
    74   1 H        0.860     0.229     0.969     1.542
    75   6 C        3.001    -0.033    28.798     8.803
    76   1 H        0.926     0.053     2.285     2.364
    77   6 C        2.773     0.215    23.457     7.932
    78   8 O        0.856    -0.373    21.142     6.165
    79   7 N        2.637    -0.378    29.756     8.102
    80   1 H        0.860     0.155     1.369     1.833
    81   6 C        3.796     0.028    20.109     6.385
    82   1 H        0.925     0.059     2.207     2.323
    83   6 C        3.860    -0.025    20.973     6.513
    84   1 H        0.924     0.044     2.395     2.420
    85   6 C        3.758    -0.111    22.680     6.790
    86   1 H        0.925     0.047     2.356     2.400
    87   1 H        0.925     0.036     2.502     2.474
    88   1 H        0.925     0.032     2.553     2.499
    89   6 C        3.808    -0.057    21.595     6.615
    90   1 H        0.924     0.031     2.572     2.508
    91   1 H        0.924     0.031     2.567     2.505
    92   6 C        3.749    -0.103    22.535     6.770
    93   1 H        0.925     0.041     2.438     2.442
    94   1 H        0.925     0.040     2.452     2.449
    95   1 H        0.924     0.023     2.687     2.563
    96   6 C        2.747     0.274    22.361     7.743
    97   8 O        0.862    -0.520    24.238     6.601
    98   7 N        2.692    -0.159    24.442     7.343
    99   1 H        0.860     0.214     1.036     1.594
   100   6 C        3.792     0.030    20.082     6.382
   101   1 H        0.925     0.082     1.958     2.188
   102   6 C        3.858    -0.023    20.950     6.510
   103   1 H        0.925     0.059     2.214     2.327
   104   6 C        3.751    -0.117    22.803     6.810
   105   1 H        0.924     0.037     2.496     2.470
   106   1 H        0.924     0.065     2.146     2.291
   107   1 H        0.924     0.036     2.503     2.474
   108   6 C        3.803    -0.054    21.538     6.607
   109   1 H        0.924     0.029     2.599     2.521
   110   1 H        0.924     0.042     2.422     2.434
   111   6 C        3.753    -0.108    22.626     6.783
   112   1 H        0.925     0.045     2.380     2.412
   113   1 H        0.924     0.050     2.317     2.380
   114   1 H        0.924     0.033     2.551     2.498
   115   6 C        2.766     0.210    23.556     7.949
   116   8 O        0.856    -0.361    20.918     6.132
   117   1 H        0.860     0.174     1.248     1.750
   118   1 H        0.923     0.055     2.260     2.351
   119   1 H        0.860     0.176     1.237     1.742
   120   1 H        0.923     0.057     2.235     2.338
   121   1 H        0.860     0.166     1.300     1.786
   122   1 H        0.923     0.059     2.207     2.324
   123   1 H        0.860     0.158     1.346     1.817
   124   1 H        0.923     0.051     2.312     2.378
   125   1 H        0.860     0.180     1.215     1.727
   126   1 H        0.923     0.070     2.084     2.258

 Mol. C6AA /au·bohr⁶  :     154790.491736
 Mol. C8AA /au·bohr⁸  :    3524624.683642
 Mol. α(0) /au        :        604.832364


Wiberg/Mayer (AO) data.
largest (>0.10) Wiberg bond orders for each atom

 ---------------------------------------------------------------------------
     #   Z sym  total        # sym  WBO       # sym  WBO       # sym  WBO
 ---------------------------------------------------------------------------
     1   7 N    3.021 --     3 C    1.026   117 H    0.957     2 H    0.956
     2   1 H    0.973 --     1 N    0.956
     3   6 C    3.984 --     1 N    1.026    19 C    0.984     4 H    0.946
                             5 C    0.934
     4   1 H    0.993 --     3 C    0.946
     5   6 C    3.989 --     8 C    1.010     6 H    0.966     7 H    0.955
                             3 C    0.934
     6   1 H    0.995 --     5 C    0.966
     7   1 H    0.997 --     5 C    0.955
     8   6 C    3.987 --    17 C    1.413     9 C    1.406     5 C    1.010
                            13 C    0.110
     9   6 C    3.988 --    11 C    1.449     8 C    1.406    10 H    0.969
                            15 C    0.108
    10   1 H    0.998 --     9 C    0.969
    11   6 C    3.990 --     9 C    1.449    13 C    1.431    12 H    0.971
                            17 C    0.111
    12   1 H    0.998 --    11 C    0.971
    13   6 C    3.988 --    15 C    1.436    11 C    1.431    14 H    0.972
                             8 C    0.110
    14   1 H    0.998 --    13 C    0.972
    15   6 C    3.991 --    17 C    1.444    13 C    1.436    16 H    0.972
                             9 C    0.108
    16   1 H    0.999 --    15 C    0.972
    17   6 C    3.991 --    15 C    1.444     8 C    1.413    18 H    0.967
                            11 C    0.111
    18   1 H    0.999 --    17 C    0.967
    19   6 C    3.873 --    20 O    1.875     3 C    0.984   118 H    0.938
    20   8 O    2.025 --    19 C    1.875
    21   7 N    3.016 --    23 C    1.021    22 H    0.959   119 H    0.954
    22   1 H    0.975 --    21 N    0.959
    23   6 C    3.986 --    21 N    1.021    39 C    0.981    24 H    0.954
                            25 C    0.939
    24   1 H    0.996 --    23 C    0.954
    25   6 C    3.983 --    28 C    1.007    26 H    0.967    27 H    0.964
                            23 C    0.939
    26   1 H    0.997 --    25 C    0.967
    27   1 H    0.996 --    25 C    0.964
    28   6 C    3.988 --    37 C    1.424    29 C    1.401    25 C    1.007
                            33 C    0.107
    29   6 C    3.991 --    31 C    1.453    28 C    1.401    30 H    0.970
                            35 C    0.112
    30   1 H    0.999 --    29 C    0.970
    31   6 C    3.991 --    29 C    1.453    33 C    1.426    32 H    0.973
                            37 C    0.112
    32   1 H    0.999 --    31 C    0.973
    33   6 C    3.987 --    35 C    1.450    31 C    1.426    34 H    0.971
                            28 C    0.107
    34   1 H    0.998 --    33 C    0.971
    35   6 C    3.989 --    33 C    1.450    37 C    1.429    36 H    0.971
                            29 C    0.112
    36   1 H    0.998 --    35 C    0.971
    37   6 C    3.990 --    35 C    1.429    28 C    1.424    38 H    0.969
                            31 C    0.112
    38   1 H    0.998 --    37 C    0.969
    39   6 C    3.882 --    40 O    1.897    23 C    0.981   120 H    0.937
    40   8 O    2.045 --    39 C    1.897
    41   7 N    3.022 --    43 C    1.025   121 H    0.959    42 H    0.952
    42   1 H    0.971 --    41 N    0.952
    43   6 C    3.984 --    41 N    1.025    60 C    0.984    45 C    0.947
                            44 H    0.935
    44   1 H    0.994 --    43 C    0.935
    45   6 C    3.989 --    48 C    1.004    47 H    0.970    46 H    0.967
                            43 C    0.947
    46   1 H    0.997 --    45 C    0.967
    47   1 H    0.997 --    45 C    0.970
    48   6 C    3.987 --    58 C    1.411    49 C    1.409    45 C    1.004
    49   6 C    3.988 --    51 C    1.450    48 C    1.409    50 H    0.967
                            56 C    0.107
    50   1 H    0.997 --    49 C    0.967
    51   6 C    3.986 --    49 C    1.450    53 C    1.363    52 H    0.969
                            58 C    0.109
    52   1 H    0.997 --    51 C    0.969
    53   6 C    3.935 --    56 C    1.374    51 C    1.363    54 O    1.069
    54   8 O    2.061 --    53 C    1.069    55 H    0.838
    55   1 H    0.859 --    54 O    0.838
    56   6 C    3.985 --    58 C    1.443    53 C    1.374    57 H    0.967
                            49 C    0.107
    57   1 H    0.997 --    56 C    0.967
    58   6 C    3.987 --    56 C    1.443    48 C    1.411    59 H    0.965
                            51 C    0.109
    59   1 H    0.997 --    58 C    0.965
    60   6 C    3.874 --    61 O    1.868    43 C    0.984   122 H    0.936
    61   8 O    2.023 --    60 C    1.868
    62   7 N    3.024 --    64 C    1.018   123 H    0.961    63 H    0.926
    63   1 H    0.966 --    62 N    0.926
    64   6 C    3.987 --    62 N    1.018    77 C    0.988    65 H    0.957
                            66 C    0.936
    65   1 H    0.997 --    64 C    0.957
    66   6 C    3.987 --    69 C    1.009    67 H    0.966    68 H    0.963
                            64 C    0.936
    67   1 H    0.997 --    66 C    0.966
    68   1 H    0.997 --    66 C    0.963
    69   6 C    3.971 --    75 C    1.571    70 N    1.263    66 C    1.009
    70   7 N    2.990 --    71 C    1.523    69 C    1.263    73 N    0.110
    71   6 C    3.958 --    70 N    1.523    73 N    1.302    72 H    0.963
                            75 C    0.114
    72   1 H    0.998 --    71 C    0.963
    73   7 N    3.593 --    71 C    1.302    75 C    1.193    74 H    0.919
                            70 N    0.110
    74   1 H    0.947 --    73 N    0.919
    75   6 C    3.934 --    69 C    1.571    73 N    1.193    76 H    0.969
                            71 C    0.114
    76   1 H    0.997 --    75 C    0.969
    77   6 C    3.878 --    78 O    1.880    64 C    0.988   124 H    0.940
    78   8 O    2.053 --    77 C    1.880
    79   7 N    3.001 --    81 C    1.016    80 H    0.957   125 H    0.952
    80   1 H    0.976 --    79 N    0.957
    81   6 C    3.980 --    79 N    1.016    82 H    0.957    96 C    0.954
                            83 C    0.950
    82   1 H    0.996 --    81 C    0.957
    83   6 C    3.991 --    85 C    1.009    89 C    0.994    84 H    0.966
                            81 C    0.950
    84   1 H    0.997 --    83 C    0.966
    85   6 C    3.987 --    83 C    1.009    87 H    0.979    86 H    0.979
                            88 H    0.977
    86   1 H    0.998 --    85 C    0.979
    87   1 H    0.999 --    85 C    0.979
    88   1 H    0.999 --    85 C    0.977
    89   6 C    3.996 --    92 C    1.016    83 C    0.994    91 H    0.974
                            90 H    0.974
    90   1 H    0.999 --    89 C    0.974
    91   1 H    0.999 --    89 C    0.974
    92   6 C    3.991 --    89 C    1.016    93 H    0.988    94 H    0.984
                            95 H    0.976
    93   1 H    0.998 --    92 C    0.988
    94   1 H    0.998 --    92 C    0.984
    95   1 H    0.999 --    92 C    0.976
    96   6 C    3.942 --    97 O    1.611    98 N    1.298    81 C    0.954
    97   8 O    1.917 --    96 C    1.611    98 N    0.190
    98   7 N    3.479 --    96 C    1.298   100 C    0.974    99 H    0.911
                            97 O    0.190
    99   1 H    0.954 --    98 N    0.911
   100   6 C    3.962 --    98 N    0.974   115 C    0.973   101 H    0.953
                           102 C    0.948
   101   1 H    0.993 --   100 C    0.953
   102   6 C    3.983 --   104 C    1.000   108 C    0.992   103 H    0.961
                           100 C    0.948
   103   1 H    0.997 --   102 C    0.961
   104   6 C    3.992 --   102 C    1.000   105 H    0.988   107 H    0.984
                           106 H    0.975
   105   1 H    0.999 --   104 C    0.988
   106   1 H    0.995 --   104 C    0.975
   107   1 H    0.999 --   104 C    0.984
   108   6 C    3.994 --   111 C    1.019   102 C    0.992   110 H    0.973
                           109 H    0.972
   109   1 H    0.999 --   108 C    0.972
   110   1 H    0.998 --   108 C    0.973
   111   6 C    3.987 --   108 C    1.019   112 H    0.982   114 H    0.980
                           113 H    0.979
   112   1 H    0.998 --   111 C    0.982
   113   1 H    0.997 --   111 C    0.979
   114   1 H    0.998 --   111 C    0.980
   115   6 C    3.869 --   116 O    1.887   100 C    0.973   126 H    0.937
   116   8 O    2.060 --   115 C    1.887
   117   1 H    0.970 --     1 N    0.957
   118   1 H    0.997 --    19 C    0.938
   119   1 H    0.969 --    21 N    0.954
   120   1 H    0.997 --    39 C    0.937
   121   1 H    0.973 --    41 N    0.959
   122   1 H    0.996 --    60 C    0.936
   123   1 H    0.975 --    62 N    0.961
   124   1 H    0.997 --    77 C    0.940
   125   1 H    0.967 --    79 N    0.952
   126   1 H    0.994 --   115 C    0.937
 ---------------------------------------------------------------------------

Topologies differ in total number of bonds
Writing topology from bond orders to xtbtopo.mol

molecular dipole:
                 x           y           z       tot (Debye)
 q only:       -0.098       1.784       0.603
   full:       -0.081       1.985       1.129       5.808
molecular quadrupole (traceless):
                xx          xy          yy          xz          yz          zz
 q only:      -90.669     122.178     -75.896     -14.471     238.456     166.565
Note: The following floating-point exceptions are signalling: IEEE_UNDERFLOW_FLAG IEEE_DENORMAL
normal termination of xtb
  q+dip:     -142.469     137.465    -134.061      19.013     269.858     276.530
   full:     -141.948     135.521    -130.693      21.608     270.915     272.641


           -------------------------------------------------
          | TOTAL ENERGY             -181.578387496810 Eh   |
          | GRADIENT NORM               0.234714313981 Eh/α |
          | HOMO-LUMO GAP               1.268818871508 eV   |
           -------------------------------------------------

------------------------------------------------------------------------
 * finished run on 2026/01/05 at 09:07:38.050     
------------------------------------------------------------------------
 total:
 * wall-time:     0 d,  0 h,  0 min,  0.507 sec
 *  cpu-time:     0 d,  0 h,  0 min,  7.517 sec
 * ratio c/w:    14.835 speedup
 SCF:
 * wall-time:     0 d,  0 h,  0 min,  0.476 sec
 *  cpu-time:     0 d,  0 h,  0 min,  7.070 sec
 * ratio c/w:    14.848 speedup

