      -----------------------------------------------------------      
     |                   =====================                   |     
     |                           x T B                           |     
     |                   =====================                   |     
     |                         S. Grimme                         |     
     |          Mulliken Center for Theoretical Chemistry        |     
     |                    University of Bonn                     |     
      -----------------------------------------------------------      

   * xtb version 6.7.1 (edcfbbe) compiled by 'conda@c0858423619e' on 2025-09-04

   xtb is free software: you can redistribute it and/or modify it under
   the terms of the GNU Lesser General Public License as published by
   the Free Software Foundation, either version 3 of the License, or
   (at your option) any later version.
   
   xtb is distributed in the hope that it will be useful,
   but WITHOUT ANY WARRANTY; without even the implied warranty of
   MERCHANTABILITY or FITNESS FOR A PARTICULAR PURPOSE.  See the
   GNU Lesser General Public License for more details.
   
   Cite this work as:
   * C. Bannwarth, E. Caldeweyher, S. Ehlert, A. Hansen, P. Pracht,
     J. Seibert, S. Spicher, S. Grimme, WIREs Comput. Mol. Sci., 2020, 11,
     e01493. DOI: 10.1002/wcms.1493
   
   for GFN2-xTB:
   * C. Bannwarth, S. Ehlert and S. Grimme., J. Chem. Theory Comput., 2019,
     15, 1652-1671. DOI: 10.1021/acs.jctc.8b01176
   for GFN1-xTB:
   * S. Grimme, C. Bannwarth, P. Shushkov, J. Chem. Theory Comput., 2017,
     13, 1989-2009. DOI: 10.1021/acs.jctc.7b00118
   for GFN0-xTB:
   * P. Pracht, E. Caldeweyher, S. Ehlert, S. Grimme, ChemRxiv, 2019, preprint.
     DOI: 10.26434/chemrxiv.8326202.v1
   for GFN-FF:
   * S. Spicher and S. Grimme, Angew. Chem. Int. Ed., 2020, 59, 15665-15673.
     DOI: 10.1002/anie.202004239
   
   for ALPB and GBSA implicit solvation:
   * S. Ehlert, M. Stahn, S. Spicher, S. Grimme, J. Chem. Theory Comput.,
     2021, 17, 4250-4261. DOI: 10.1021/acs.jctc.1c00471
   
   for ddCOSMO and CPCM-X implicit solvation:
   * M. Stahn, S. Ehlert, S. Grimme, J. Phys. Chem. A,
     2023, XX, XXXX-XXXX. DOI: 10.1021/acs.jpca.3c04382
   
   for DFT-D4:
   * E. Caldeweyher, C. Bannwarth and S. Grimme, J. Chem. Phys., 2017,
     147, 034112. DOI: 10.1063/1.4993215
   * E. Caldeweyher, S. Ehlert, A. Hansen, H. Neugebauer, S. Spicher,
     C. Bannwarth and S. Grimme, J. Chem. Phys., 2019, 150, 154122.
     DOI: 10.1063/1.5090222
   * E. Caldeweyher, J.-M. Mewes, S. Ehlert and S. Grimme, Phys. Chem. Chem. Phys.
     2020, 22, 8499-8512. DOI: 10.1039/D0CP00502A
   
   for sTDA-xTB:
   * S. Grimme and C. Bannwarth, J. Chem. Phys., 2016, 145, 054103.
     DOI: 10.1063/1.4959605
   
   in the mass-spec context:
   * V. Asgeirsson, C. Bauer and S. Grimme, Chem. Sci., 2017, 8, 4879.
     DOI: 10.1039/c7sc00601b
   * J. Koopman and S. Grimme, ACS Omega 2019, 4, 12, 15120-15133.
     DOI: 10.1021/acsomega.9b02011
   
   for metadynamics refer to:
   * S. Grimme, J. Chem. Theory Comput., 2019, 155, 2847-2862
     DOI: 10.1021/acs.jctc.9b00143
   
   for SPH calculations refer to:
   * S. Spicher and S. Grimme, J. Chem. Theory Comput., 2021, 17, 1701-1714
     DOI: 10.1021/acs.jctc.0c01306
   
   for ONIOM refer to:
   * C. Plett, A. Katbashev, S. Ehlert, S. Grimme, M. Bursch,
     Phys. Chem. Chem. Phys., 2023, 25, 17860-17868. DOI: 10.1039/D3CP02178E
   
   for DIPRO refer to:
   * J. Kohn, N. Gildemeister, S. Grimme, D. Fazzi, A. Hansen,
     J. Chem. Phys., 2023, just accepted.
   
   for PTB refer to:
   * S. Grimme, M. Mueller, A. Hansen, J. Chem. Phys., 2023, 158, 124111.
     DOI: 10.1063/5.0137838
   
   with help from (in alphabetical order)
   P. Atkinson, C. Bannwarth, F. Bohle, G. Brandenburg, E. Caldeweyher
   M. Checinski, S. Dohm, S. Ehlert, S. Ehrlich, I. Gerasimov, C. Hölzer
   A. Katbashev, J. Kohn, J. Koopman, C. Lavigne, S. Lehtola, F. März, M. Müller,
   F. Musil, H. Neugebauer, J. Pisarek, C. Plett, P. Pracht, F. Pultar,
   J. Seibert, P. Shushkov, S. Spicher, M. Stahn, M. Steiner, T. Strunk,
   J. Stückrath, T. Rose, and J. Unsleber
   
 * started run on 2026/01/05 at 09:06:13.063     
   ID    Z sym.   atoms
    1    6 C      1, 3-11, 14-16, 18, 20, 21, 24-29, 32
    2    7 N      2, 22
    3    8 O      12, 13, 17, 30, 31
    4   16 S      19, 23
    5    1 H      33-59

           -------------------------------------------------
          |                Calculation Setup                |
           -------------------------------------------------

          program call               : xtb /home/antonio_mesquita/Documentos/gmx_ISA_project/testes_arquivos_primeiros/gmx_ISA_testes/testes_qm_xtb/QM_analysis/QM_FRAMES_CAPPED/frame_0ps/ligand_isolated_0ps.xyz --gfn 2 --alpb water --chrg 1 --etemp 1500 --cycles 1000
          coordinate file            : /home/antonio_mesquita/Documentos/gmx_ISA_project/testes_arquivos_primeiros/gmx_ISA_testes/testes_qm_xtb/QM_analysis/QM_FRAMES_CAPPED/frame_0ps/ligand_isolated_0ps.xyz
          omp threads                :                    16


           -------------------------------------------------
          |                 G F N 2 - x T B                 |
           -------------------------------------------------

        Reference                      10.1021/acs.jctc.8b01176
      * Hamiltonian:
        H0-scaling (s, p, d)           1.850000    2.230000    2.230000
        zeta-weighting                 0.500000
      * Dispersion:
        s8                             2.700000
        a1                             0.520000
        a2                             5.000000
        s9                             5.000000
      * Repulsion:
        kExp                           1.500000    1.000000
        rExp                           1.000000
      * Coulomb:
        alpha                          2.000000
        third order                    shell-resolved
        anisotropic                    true
        a3                             3.000000
        a5                             4.000000
        cn-shift                       1.200000
        cn-exp                         4.000000
        max-rad                        5.000000

      * Solvation model:               ALPB
        Solvent                        water
        Parameter file                 internal GFN2-xTB/ALPB
        Dielectric constant                8.0200E+01
        Reference state                gsolv [1 M gas/solution]
        Free energy shift                  1.0808E-03 Eh       6.7819E-01 kcal/mol
        Temperature                        2.9815E+02 K
        Density                            1.0000E+00 kg/L
        Solvent mass                       1.8000E+01 g/mol
        Interaction kernel             P16
        Born radius scaling (c1)           1.4744E+00
        Born radii integrator          GBOBC
        Born offset                        0.0000E+00 a0       0.0000E+00 AA
        H-bond correction              true
        Ion screening                  false
        Surface tension                    1.0000E-05 Eh       1.5569E+01 dyn/cm
        Grid points                               230 per atom

          ...................................................
          :                      SETUP                      :
          :.................................................:
          :  # basis functions                 167          :
          :  # atomic orbitals                 165          :
          :  # shells                           93          :
          :  # electrons                       170          :
          :  max. iterations                   250          :
          :  Hamiltonian                  GFN2-xTB          :
          :  restarted?                      false          :
          :  GBSA solvation                   true          :
          :  PC potential                    false          :
          :  electronic temp.         1500.0000000     K    :
          :  accuracy                    1.0000000          :
          :  -> integral cutoff          0.2500000E+02      :
          :  -> integral neglect         0.1000000E-07      :
          :  -> SCF convergence          0.1000000E-05 Eh   :
          :  -> wf. convergence          0.1000000E-03 e    :
          :  Broyden damping             0.4000000          :
          :  net charge                          1          :
          :  unpaired electrons                  0          :
          ...................................................

 iter      E             dE          RMSdq      gap      omega  full diag
   1    -96.2553332 -0.962553E+02  0.505E+00    0.82       0.0  T
   2    -96.2394163  0.159169E-01  0.355E+00    0.31       1.0  T
   3    -96.3038578 -0.644416E-01  0.276E+00    1.92       1.0  T
   4    -96.4211566 -0.117299E+00  0.144E+00    0.88       1.0  T
   5    -96.4076651  0.134915E-01  0.116E+00    1.06       1.0  T
   6    -96.4435310 -0.358658E-01  0.251E-01    0.42       1.0  T
   7    -96.4441516 -0.620693E-03  0.102E-01    0.39       1.0  T
   8    -96.4442145 -0.628967E-04  0.683E-02    0.37       1.0  T
   9    -96.4441428  0.717171E-04  0.785E-02    0.42       1.0  T
  10    -96.4442588 -0.115934E-03  0.451E-02    0.38       1.0  T
  11    -96.4442996 -0.408019E-04  0.804E-03    0.39       1.6  T
  12    -96.4443005 -0.901346E-06  0.284E-03    0.39       4.6  T
  13    -96.4443005  0.300521E-08  0.256E-03    0.39       5.1  T
  14    -96.4443006 -0.141793E-06  0.713E-04    0.39      18.2  T
  15    -96.4443006 -0.126641E-07  0.356E-04    0.39      36.6  T

   *** convergence criteria satisfied after 15 iterations ***

         #    Occupation            Energy/Eh            Energy/eV
      -------------------------------------------------------------
         1        2.0000           -0.8053616             -21.9150
       ...           ...                  ...                  ...
        79        1.9996           -0.4320405             -11.7564
        80        1.9991           -0.4283537             -11.6561
        81        1.9991           -0.4280179             -11.6470
        82        1.9944           -0.4194425             -11.4136
        83        1.9904           -0.4168951             -11.3443
        84        1.9785           -0.4130376             -11.2393
        85        1.6567           -0.3990433             -10.8585 (HOMO)
        86        0.3826           -0.3847189             -10.4687 (LUMO)
        87                         -0.2796149              -7.6087
        88                         -0.2706022              -7.3635
        89                         -0.2549007              -6.9362
        90                         -0.2466565              -6.7119
       ...                                ...                  ...
       165                          1.0306586              28.0456
      -------------------------------------------------------------
                  HL-Gap            0.0143244 Eh            0.3898 eV
             Fermi-level           -0.3915671 Eh          -10.6551 eV

 SCC (total)                   0 d,  0 h,  0 min,  0.193 sec
 SCC setup                      ...        0 min,  0.002 sec (  0.982%)
 Dispersion                     ...        0 min,  0.002 sec (  0.851%)
 classical contributions        ...        0 min,  0.000 sec (  0.128%)
 integral evaluation            ...        0 min,  0.011 sec (  5.455%)
 iterations                     ...        0 min,  0.132 sec ( 68.352%)
 molecular gradient             ...        0 min,  0.047 sec ( 24.096%)
 printout                       ...        0 min,  0.000 sec (  0.124%)

         :::::::::::::::::::::::::::::::::::::::::::::::::::::
         ::                     SUMMARY                     ::
         :::::::::::::::::::::::::::::::::::::::::::::::::::::
         :: total energy             -95.295213471003 Eh    ::
         :: total w/o Gsasa/hb       -95.293549478385 Eh    ::
         :: gradient norm              0.125127801457 Eh/a0 ::
         :: HOMO-LUMO gap              0.389785891024 eV    ::
         ::.................................................::
         :: SCC energy               -96.441259747191 Eh    ::
         :: -> isotropic ES            0.262646540340 Eh    ::
         :: -> anisotropic ES         -0.031414644001 Eh    ::
         :: -> anisotropic XC          0.041170065541 Eh    ::
         :: -> dispersion             -0.073655200475 Eh    ::
         :: -> Gsolv                  -0.106628444069 Eh    ::
         ::    -> Gelec               -0.104964451452 Eh    ::
         ::    -> Gsasa                0.005627975663 Eh    ::
         ::    -> Ghb                 -0.008372727978 Eh    ::
         ::    -> Gshift               0.001080759698 Eh    ::
         :: repulsion energy           1.146046276188 Eh    ::
         :: add. restraining           0.000000000000 Eh    ::
         :: total charge               1.000000000301 e     ::
         :::::::::::::::::::::::::::::::::::::::::::::::::::::

           -------------------------------------------------
          |                Property Printout                |
           -------------------------------------------------

    * Orbital Energies and Occupations

         #    Occupation            Energy/Eh            Energy/eV
      -------------------------------------------------------------
         1        2.0000           -0.8053616             -21.9150
       ...           ...                  ...                  ...
        73        2.0000           -0.4567536             -12.4289
        74        2.0000           -0.4555039             -12.3949
        75        2.0000           -0.4456677             -12.1272
        76        2.0000           -0.4434736             -12.0675
        77        1.9999           -0.4393453             -11.9552
        78        1.9999           -0.4390787             -11.9479
        79        1.9996           -0.4320405             -11.7564
        80        1.9991           -0.4283537             -11.6561
        81        1.9991           -0.4280179             -11.6470
        82        1.9944           -0.4194425             -11.4136
        83        1.9904           -0.4168951             -11.3443
        84        1.9785           -0.4130376             -11.2393
        85        1.6567           -0.3990433             -10.8585 (HOMO)
        86        0.3826           -0.3847189             -10.4687 (LUMO)
        87                         -0.2796149              -7.6087
        88                         -0.2706022              -7.3635
        89                         -0.2549007              -6.9362
        90                         -0.2466565              -6.7119
        91                         -0.2416872              -6.5766
        92                         -0.2402654              -6.5380
        93                         -0.2377479              -6.4694
        94                         -0.1835709              -4.9952
        95                         -0.1774334              -4.8282
        96                         -0.1566497              -4.2627
       ...                                ...                  ...
       165                          1.0306586              28.0456
      -------------------------------------------------------------
                  HL-Gap            0.0143244 Eh            0.3898 eV
             Fermi-level           -0.3915671 Eh          -10.6551 eV

     #   Z          covCN         q      C6AA      α(0)
     1   6 C        2.744     0.282    22.231     7.720
     2   7 N        2.685    -0.069    22.587     7.059
     3   6 C        2.868     0.109    25.590     8.292
     4   6 C        3.694     0.067    19.617     6.337
     5   6 C        3.809    -0.097    22.352     6.730
     6   6 C        2.966     0.014    27.692     8.632
     7   6 C        2.913    -0.044    29.097     8.845
     8   6 C        2.919    -0.033    28.823     8.804
     9   6 C        2.910    -0.031    28.777     8.796
    10   6 C        2.909    -0.033    28.824     8.803
    11   6 C        2.917    -0.045    29.122     8.849
    12   8 O        1.703    -0.235    17.904     5.713
    13   8 O        0.856    -0.424    22.166     6.312
    14   6 C        2.712     0.364    20.833     7.471
    15   6 C        3.746    -0.139    23.240     6.876
    16   6 C        3.874    -0.020    20.886     6.498
    17   8 O        0.858    -0.404    21.759     6.254
    18   6 C        3.788    -0.049    21.465     6.599
    19  16 S        1.999     0.021   140.186    19.928
    20   6 C        3.792    -0.043    21.352     6.581
    21   6 C        3.860     0.027    20.089     6.374
    22   7 N        2.728    -0.277    27.159     7.740
    23  16 S        3.832     1.149   102.487    17.039
    24   6 C        2.965    -0.085    30.129     9.003
    25   6 C        2.941    -0.031    28.772     8.797
    26   6 C        2.908    -0.036    28.898     8.815
    27   6 C        2.963     0.044    27.012     8.525
    28   6 C        2.926    -0.035    28.867     8.811
    29   6 C        2.948    -0.033    28.819     8.805
    30   8 O        0.860    -0.648    27.330     7.009
    31   8 O        0.859    -0.644    27.221     6.995
    32   6 C        3.754    -0.137    23.185     6.866
    33   1 H        0.860     0.272     0.805     1.405
    34   1 H        0.923     0.073     2.049     2.238
    35   1 H        0.924     0.071     2.070     2.250
    36   1 H        0.924     0.154     1.364     1.826
    37   1 H        0.923     0.198     1.108     1.646
    38   1 H        0.924     0.055     2.260     2.351
    39   1 H        0.925     0.054     2.265     2.354
    40   1 H        0.925     0.053     2.280     2.362
    41   1 H        0.925     0.061     2.187     2.313
    42   1 H        0.925     0.072     2.061     2.245
    43   1 H        0.924     0.063     2.167     2.302
    44   1 H        0.924     0.077     2.014     2.219
    45   1 H        0.924     0.076     2.025     2.225
    46   1 H        0.924     0.103     1.761     2.075
    47   1 H        0.924     0.091     1.867     2.137
    48   1 H        0.924     0.089     1.887     2.148
    49   1 H        0.923     0.123     1.588     1.971
    50   1 H        0.924     0.085     1.931     2.173
    51   1 H        0.923     0.102     1.771     2.081
    52   1 H        0.923     0.108     1.710     2.045
    53   1 H        0.925     0.071     2.072     2.251
    54   1 H        0.925     0.087     1.904     2.158
    55   1 H        0.925     0.086     1.917     2.165
    56   1 H        0.925     0.076     2.023     2.224
    57   1 H        0.923     0.068     2.113     2.273
    58   1 H        0.924     0.074     2.038     2.232
    59   1 H        0.923     0.074     2.046     2.237

 Mol. C6AA /au·bohr⁶  :      43349.370764
 Mol. C8AA /au·bohr⁸  :    1117305.982698
 Mol. α(0) /au        :        323.786058


Wiberg/Mayer (AO) data.
largest (>0.10) Wiberg bond orders for each atom

 ---------------------------------------------------------------------------
     #   Z sym  total        # sym  WBO       # sym  WBO       # sym  WBO
 ---------------------------------------------------------------------------
     1   6 C    3.902 --    17 O    1.736     2 N    1.135    21 C    0.949
     2   7 N    3.555 --     3 C    1.298     1 C    1.135    33 H    0.862
                            17 O    0.112
     3   6 C    3.638 --     2 N    1.298     5 C    1.087    14 C    1.011
     4   6 C    3.908 --    15 C    1.012    34 H    0.963    35 H    0.961
                            12 O    0.932
     5   6 C    3.940 --     3 C    1.087     6 C    0.988    36 H    0.920
                            37 H    0.837
     6   6 C    3.963 --    11 C    1.408     7 C    1.393     5 C    0.988
                             9 C    0.104
     7   6 C    3.976 --     8 C    1.446     6 C    1.393    38 H    0.965
                            10 C    0.109
     8   6 C    3.976 --     7 C    1.446     9 C    1.426    39 H    0.963
                            11 C    0.108
     9   6 C    3.973 --    10 C    1.437     8 C    1.426    40 H    0.969
                             6 C    0.104
    10   6 C    3.980 --     9 C    1.437    11 C    1.435    41 H    0.968
                             7 C    0.109
    11   6 C    3.975 --    10 C    1.435     6 C    1.408    42 H    0.965
                             8 C    0.108
    12   8 O    2.321 --    14 C    1.141     4 C    0.932    13 O    0.191
    13   8 O    1.993 --    14 C    1.692    12 O    0.191
    14   6 C    3.910 --    13 O    1.692    12 O    1.141     3 C    1.011
    15   6 C    3.980 --     4 C    1.012    45 H    0.984    44 H    0.982
                            43 H    0.980
    16   6 C    3.935 --    18 C    0.993    22 N    0.985    47 H    0.945
                            46 H    0.933
    17   8 O    1.997 --     1 C    1.736     2 N    0.112
    18   6 C    3.946 --    19 S    0.998    16 C    0.993    48 H    0.960
                            49 H    0.958
    19  16 S    2.087 --    20 C    0.999    18 C    0.998
    20   6 C    3.958 --    19 S    0.999    21 C    0.964    51 H    0.964
                            50 H    0.963
    21   6 C    3.952 --    22 N    0.994    20 C    0.964     1 C    0.949
                            52 H    0.918
    22   7 N    3.184 --    21 C    0.994    16 C    0.985    23 S    0.885
    23  16 S    4.812 --    30 O    1.558    31 O    1.542    22 N    0.885
                            24 C    0.730
    24   6 C    3.933 --    25 C    1.407    29 C    1.390    23 S    0.730
    25   6 C    3.982 --    26 C    1.441    24 C    1.407    53 H    0.963
    26   6 C    3.980 --    25 C    1.441    27 C    1.400    54 H    0.963
                            29 C    0.105
    27   6 C    3.980 --    26 C    1.400    28 C    1.391    32 C    1.036
    28   6 C    3.982 --    29 C    1.457    27 C    1.391    55 H    0.961
    29   6 C    3.981 --    28 C    1.457    24 C    1.390    56 H    0.964
                            26 C    0.105
    30   8 O    1.854 --    23 S    1.558    31 O    0.104
    31   8 O    1.843 --    23 S    1.542    30 O    0.104
    32   6 C    3.984 --    27 C    1.036    57 H    0.978    59 H    0.970
                            58 H    0.955
    33   1 H    0.923 --     2 N    0.862
    34   1 H    0.992 --     4 C    0.963
    35   1 H    0.992 --     4 C    0.961
    36   1 H    0.969 --     5 C    0.920
    37   1 H    0.926 --     5 C    0.837
    38   1 H    0.997 --     7 C    0.965
    39   1 H    0.995 --     8 C    0.963
    40   1 H    0.996 --     9 C    0.969
    41   1 H    0.996 --    10 C    0.968
    42   1 H    0.994 --    11 C    0.965
    43   1 H    0.995 --    15 C    0.980
    44   1 H    0.994 --    15 C    0.982
    45   1 H    0.994 --    15 C    0.984
    46   1 H    0.986 --    16 C    0.933
    47   1 H    0.990 --    16 C    0.945
    48   1 H    0.979 --    18 C    0.960
    49   1 H    0.985 --    18 C    0.958
    50   1 H    0.984 --    20 C    0.963
    51   1 H    0.988 --    20 C    0.964
    52   1 H    0.985 --    21 C    0.918
    53   1 H    0.995 --    25 C    0.963
    54   1 H    0.991 --    26 C    0.963
    55   1 H    0.992 --    28 C    0.961
    56   1 H    0.994 --    29 C    0.964
    57   1 H    0.995 --    32 C    0.978
    58   1 H    0.993 --    32 C    0.955
    59   1 H    0.994 --    32 C    0.970
 ---------------------------------------------------------------------------

Topologies differ in total number of bonds
Writing topology from bond orders to xtbtopo.mol

molecular dipole:
                 x           y           z       tot (Debye)
 q only:       70.367      64.738      79.864
   full:       70.661      64.356      79.013     315.196
molecular quadrupole (traceless):
                xx          xy          yy          xz          yz          zz
 q only:     -311.052    6812.927   -1426.549    8458.015    7749.589    1737.601
  q+dip:     -185.198    6804.427   -1430.935    8402.738    7627.352    1616.133
   full:     -184.772    6802.329   -1433.455    8401.491    7628.787    1618.227


           -------------------------------------------------
          | TOTAL ENERGY              -95.295213471003 Eh   |
          | GRADIENT NORM               0.125127801457 Eh/α |
          | HOMO-LUMO GAP               0.389785891024 eV   |
           -------------------------------------------------

------------------------------------------------------------------------
Note: The following floating-point exceptions are signalling: IEEE_UNDERFLOW_FLAG IEEE_DENORMAL
normal termination of xtb
 * finished run on 2026/01/05 at 09:06:13.288     
------------------------------------------------------------------------
 total:
 * wall-time:     0 d,  0 h,  0 min,  0.225 sec
 *  cpu-time:     0 d,  0 h,  0 min,  3.410 sec
 * ratio c/w:    15.152 speedup
 SCF:
 * wall-time:     0 d,  0 h,  0 min,  0.194 sec
 *  cpu-time:     0 d,  0 h,  0 min,  2.948 sec
 * ratio c/w:    15.213 speedup

