      -----------------------------------------------------------      
     |                   =====================                   |     
     |                           x T B                           |     
     |                   =====================                   |     
     |                         S. Grimme                         |     
     |          Mulliken Center for Theoretical Chemistry        |     
     |                    University of Bonn                     |     
      -----------------------------------------------------------      

   * xtb version 6.7.1 (edcfbbe) compiled by 'conda@c0858423619e' on 2025-09-04

   xtb is free software: you can redistribute it and/or modify it under
   the terms of the GNU Lesser General Public License as published by
   the Free Software Foundation, either version 3 of the License, or
   (at your option) any later version.
   
   xtb is distributed in the hope that it will be useful,
   but WITHOUT ANY WARRANTY; without even the implied warranty of
   MERCHANTABILITY or FITNESS FOR A PARTICULAR PURPOSE.  See the
   GNU Lesser General Public License for more details.
   
   Cite this work as:
   * C. Bannwarth, E. Caldeweyher, S. Ehlert, A. Hansen, P. Pracht,
     J. Seibert, S. Spicher, S. Grimme, WIREs Comput. Mol. Sci., 2020, 11,
     e01493. DOI: 10.1002/wcms.1493
   
   for GFN2-xTB:
   * C. Bannwarth, S. Ehlert and S. Grimme., J. Chem. Theory Comput., 2019,
     15, 1652-1671. DOI: 10.1021/acs.jctc.8b01176
   for GFN1-xTB:
   * S. Grimme, C. Bannwarth, P. Shushkov, J. Chem. Theory Comput., 2017,
     13, 1989-2009. DOI: 10.1021/acs.jctc.7b00118
   for GFN0-xTB:
   * P. Pracht, E. Caldeweyher, S. Ehlert, S. Grimme, ChemRxiv, 2019, preprint.
     DOI: 10.26434/chemrxiv.8326202.v1
   for GFN-FF:
   * S. Spicher and S. Grimme, Angew. Chem. Int. Ed., 2020, 59, 15665-15673.
     DOI: 10.1002/anie.202004239
   
   for ALPB and GBSA implicit solvation:
   * S. Ehlert, M. Stahn, S. Spicher, S. Grimme, J. Chem. Theory Comput.,
     2021, 17, 4250-4261. DOI: 10.1021/acs.jctc.1c00471
   
   for ddCOSMO and CPCM-X implicit solvation:
   * M. Stahn, S. Ehlert, S. Grimme, J. Phys. Chem. A,
     2023, XX, XXXX-XXXX. DOI: 10.1021/acs.jpca.3c04382
   
   for DFT-D4:
   * E. Caldeweyher, C. Bannwarth and S. Grimme, J. Chem. Phys., 2017,
     147, 034112. DOI: 10.1063/1.4993215
   * E. Caldeweyher, S. Ehlert, A. Hansen, H. Neugebauer, S. Spicher,
     C. Bannwarth and S. Grimme, J. Chem. Phys., 2019, 150, 154122.
     DOI: 10.1063/1.5090222
   * E. Caldeweyher, J.-M. Mewes, S. Ehlert and S. Grimme, Phys. Chem. Chem. Phys.
     2020, 22, 8499-8512. DOI: 10.1039/D0CP00502A
   
   for sTDA-xTB:
   * S. Grimme and C. Bannwarth, J. Chem. Phys., 2016, 145, 054103.
     DOI: 10.1063/1.4959605
   
   in the mass-spec context:
   * V. Asgeirsson, C. Bauer and S. Grimme, Chem. Sci., 2017, 8, 4879.
     DOI: 10.1039/c7sc00601b
   * J. Koopman and S. Grimme, ACS Omega 2019, 4, 12, 15120-15133.
     DOI: 10.1021/acsomega.9b02011
   
   for metadynamics refer to:
   * S. Grimme, J. Chem. Theory Comput., 2019, 155, 2847-2862
     DOI: 10.1021/acs.jctc.9b00143
   
   for SPH calculations refer to:
   * S. Spicher and S. Grimme, J. Chem. Theory Comput., 2021, 17, 1701-1714
     DOI: 10.1021/acs.jctc.0c01306
   
   for ONIOM refer to:
   * C. Plett, A. Katbashev, S. Ehlert, S. Grimme, M. Bursch,
     Phys. Chem. Chem. Phys., 2023, 25, 17860-17868. DOI: 10.1039/D3CP02178E
   
   for DIPRO refer to:
   * J. Kohn, N. Gildemeister, S. Grimme, D. Fazzi, A. Hansen,
     J. Chem. Phys., 2023, just accepted.
   
   for PTB refer to:
   * S. Grimme, M. Mueller, A. Hansen, J. Chem. Phys., 2023, 158, 124111.
     DOI: 10.1063/5.0137838
   
   with help from (in alphabetical order)
   P. Atkinson, C. Bannwarth, F. Bohle, G. Brandenburg, E. Caldeweyher
   M. Checinski, S. Dohm, S. Ehlert, S. Ehrlich, I. Gerasimov, C. Hölzer
   A. Katbashev, J. Kohn, J. Koopman, C. Lavigne, S. Lehtola, F. März, M. Müller,
   F. Musil, H. Neugebauer, J. Pisarek, C. Plett, P. Pracht, F. Pultar,
   J. Seibert, P. Shushkov, S. Spicher, M. Stahn, M. Steiner, T. Strunk,
   J. Stückrath, T. Rose, and J. Unsleber
   
 * started run on 2026/01/05 at 09:07:00.171     
   ID    Z sym.   atoms
    1    7 N      1, 21, 33, 53, 65, 70, 85, 101, 120, 133, 136, 139, 144,
                  165, 172, 180, 183, 189, 208
    2    1 H      2, 4, 6, 7, 10, 12, 14, 16, 18, 22, 24, 26, 27, 34, 36, 38,
                  39, 42, 44, 46, 48, 50, 54, 56, 58, 59, 61, 62, 66, 67, 71,
                  73, 75, 76, 78, 79, 86, 88, 90, 92-94, 96-98, 102, 104,
                  106, 108-110, 112, 113, 115-117, 121, 123, 125, 126, 128,
                  129, 131, 132, 134, 137, 138, 140, 141, 145, 147, 149, 150,
                  153, 155, 158, 160, 162, 166, 168, 169, 173, 175, 177, 178,
                  182, 184, 186, 190, 192, 194, 196-198, 200, 201, 203-205,
                  209, 211, 213, 215-217, 219, 220, 222-224, 227-238
    3    6 C      3, 5, 8, 9, 11, 13, 15, 17, 19, 23, 25, 28, 31, 35, 37, 40,
                  41, 43, 45, 47, 49, 51, 55, 57, 60, 63, 68, 72, 74, 77, 80,
                  83, 87, 89, 91, 95, 99, 103, 105, 107, 111, 114, 118, 122,
                  124, 127, 130, 135, 142, 146, 148, 151, 152, 154, 156, 159,
                  161, 163, 167, 170, 174, 176, 179, 181, 185, 187, 191, 193,
                  195, 199, 202, 206, 210, 212, 214, 218, 221, 225
    4    8 O      20, 29, 30, 32, 52, 64, 69, 81, 82, 84, 100, 119, 143, 157,
                  164, 171, 188, 207, 226

           -------------------------------------------------
          |                Calculation Setup                |
           -------------------------------------------------

          program call               : xtb /home/antonio_mesquita/Documentos/gmx_ISA_project/testes_arquivos_primeiros/gmx_ISA_testes/testes_qm_xtb/QM_analysis/QM_FRAMES_CAPPED/frame_2600ps/residues_pocket_capped_2600ps.xyz --gfn 2 --alpb water --chrg -1 --etemp 1500 --cycles 1000
          coordinate file            : /home/antonio_mesquita/Documentos/gmx_ISA_project/testes_arquivos_primeiros/gmx_ISA_testes/testes_qm_xtb/QM_analysis/QM_FRAMES_CAPPED/frame_2600ps/residues_pocket_capped_2600ps.xyz
          omp threads                :                    16


molecular fragmentation (1/2 indicates fragments):
111111111111111111111111111111112222222222222222222222222222222222222222
222222222222222222222222222222222222222222222222222222222222222222222222
222222222222222222222222222222222222222222222222222222222222222222222222
2222222222112222222222
# atoms in fragment 1/2:    34   204
 fragment masses (1/2) :      263.27     1366.65
CMA distance (Bohr)    :  17.261
constraining FC (au)   :  0.0500

           -------------------------------------------------
          |                 G F N 2 - x T B                 |
           -------------------------------------------------

        Reference                      10.1021/acs.jctc.8b01176
      * Hamiltonian:
        H0-scaling (s, p, d)           1.850000    2.230000    2.230000
        zeta-weighting                 0.500000
      * Dispersion:
        s8                             2.700000
        a1                             0.520000
        a2                             5.000000
        s9                             5.000000
      * Repulsion:
        kExp                           1.500000    1.000000
        rExp                           1.000000
      * Coulomb:
        alpha                          2.000000
        third order                    shell-resolved
        anisotropic                    true
        a3                             3.000000
        a5                             4.000000
        cn-shift                       1.200000
        cn-exp                         4.000000
        max-rad                        5.000000

      * Solvation model:               ALPB
        Solvent                        water
        Parameter file                 internal GFN2-xTB/ALPB
        Dielectric constant                8.0200E+01
        Reference state                gsolv [1 M gas/solution]
        Free energy shift                  1.0808E-03 Eh       6.7819E-01 kcal/mol
        Temperature                        2.9815E+02 K
        Density                            1.0000E+00 kg/L
        Solvent mass                       1.8000E+01 g/mol
        Interaction kernel             P16
        Born radius scaling (c1)           1.4744E+00
        Born radii integrator          GBOBC
        Born offset                        0.0000E+00 a0       0.0000E+00 AA
        H-bond correction              true
        Ion screening                  false
        Surface tension                    1.0000E-05 Eh       1.5569E+01 dyn/cm
        Grid points                               230 per atom

          ...................................................
          :                      SETUP                      :
          :.................................................:
          :  # basis functions                 586          :
          :  # atomic orbitals                 586          :
          :  # shells                          354          :
          :  # electrons                       644          :
          :  max. iterations                   250          :
          :  Hamiltonian                  GFN2-xTB          :
          :  restarted?                      false          :
          :  GBSA solvation                   true          :
          :  PC potential                    false          :
          :  electronic temp.         1500.0000000     K    :
          :  accuracy                    1.0000000          :
          :  -> integral cutoff          0.2500000E+02      :
          :  -> integral neglect         0.1000000E-07      :
          :  -> SCF convergence          0.1000000E-05 Eh   :
          :  -> wf. convergence          0.1000000E-03 e    :
          :  Broyden damping             0.4000000          :
          :  net charge                         -1          :
          :  unpaired electrons                  0          :
          ...................................................

 iter      E             dE          RMSdq      gap      omega  full diag
   1   -365.8380249 -0.365838E+03  0.434E+00    1.70       0.0  T
   2   -366.6404263 -0.802401E+00  0.222E+00    1.06       1.0  T
   3   -366.6671628 -0.267365E-01  0.119E+00    1.50       1.0  T
   4   -366.6948024 -0.276396E-01  0.307E-01    0.85       1.0  T
   5   -366.7067366 -0.119342E-01  0.125E-01    1.24       1.0  T
   6   -366.7074012 -0.664640E-03  0.663E-02    1.04       1.0  T
   7   -366.7076510 -0.249815E-03  0.271E-02    1.09       1.0  T
   8   -366.7076810 -0.299648E-04  0.114E-02    1.08       1.0  T
   9   -366.7076878 -0.682645E-05  0.543E-03    1.09       1.2  T
  10   -366.7076894 -0.158641E-05  0.286E-03    1.08       2.3  T
  11   -366.7076899 -0.479205E-06  0.133E-03    1.08       4.9  T
  12   -366.7076900 -0.992948E-07  0.594E-04    1.08      10.9  T
  13   -366.7076900 -0.222195E-07  0.307E-04    1.08      21.1  T

   *** convergence criteria satisfied after 13 iterations ***

         #    Occupation            Energy/Eh            Energy/eV
      -------------------------------------------------------------
         1        2.0000           -0.7359935             -20.0274
       ...           ...                  ...                  ...
       316        1.9996           -0.3593933              -9.7796
       317        1.9976           -0.3504082              -9.5351
       318        1.9959           -0.3477977              -9.4641
       319        1.9944           -0.3463200              -9.4238
       320        1.9930           -0.3452075              -9.3936
       321        1.9850           -0.3415763              -9.2948
       322        1.9722           -0.3386133              -9.2141 (HOMO)
       323        0.0323           -0.2988487              -8.1321 (LUMO)
       324        0.0157           -0.2953837              -8.0378
       325        0.0057           -0.2905639              -7.9066
       326        0.0055           -0.2904187              -7.9027
       327        0.0028           -0.2871397              -7.8135
       ...           ...                  ...                  ...
       586                          0.6386323              17.3781
      -------------------------------------------------------------
                  HL-Gap            0.0397646 Eh            1.0820 eV
             Fermi-level           -0.3183765 Eh           -8.6635 eV

 SCC (total)                   0 d,  0 h,  0 min,  1.491 sec
 SCC setup                      ...        0 min,  0.016 sec (  1.076%)
 Dispersion                     ...        0 min,  0.024 sec (  1.600%)
 classical contributions        ...        0 min,  0.003 sec (  0.179%)
 integral evaluation            ...        0 min,  0.061 sec (  4.101%)
 iterations                     ...        0 min,  1.191 sec ( 79.869%)
 molecular gradient             ...        0 min,  0.193 sec ( 12.929%)
 printout                       ...        0 min,  0.004 sec (  0.242%)

         :::::::::::::::::::::::::::::::::::::::::::::::::::::
         ::                     SUMMARY                     ::
         :::::::::::::::::::::::::::::::::::::::::::::::::::::
         :: total energy            -362.217415897943 Eh    ::
         :: total w/o Gsasa/hb      -362.179368929312 Eh    ::
         :: gradient norm              0.283602258532 Eh/a0 ::
         :: HOMO-LUMO gap              1.082049911010 eV    ::
         ::.................................................::
         :: SCC energy              -366.698195498191 Eh    ::
         :: -> isotropic ES            1.297042947200 Eh    ::
         :: -> anisotropic ES          0.023065513388 Eh    ::
         :: -> anisotropic XC          0.146050748334 Eh    ::
         :: -> dispersion             -0.256578700390 Eh    ::
         :: -> Gsolv                  -0.462914364447 Eh    ::
         ::    -> Gelec               -0.424867395817 Eh    ::
         ::    -> Gsasa                0.012468804286 Eh    ::
         ::    -> Ghb                 -0.051596532614 Eh    ::
         ::    -> Gshift               0.001080759698 Eh    ::
         :: repulsion energy           4.480779600248 Eh    ::
         :: add. restraining           0.000000000000 Eh    ::
         :: total charge              -0.999999999998 e     ::
         :::::::::::::::::::::::::::::::::::::::::::::::::::::

           -------------------------------------------------
          |                Property Printout                |
           -------------------------------------------------

    * Orbital Energies and Occupations

         #    Occupation            Energy/Eh            Energy/eV
      -------------------------------------------------------------
         1        2.0000           -0.7359935             -20.0274
       ...           ...                  ...                  ...
       310        2.0000           -0.3824672             -10.4075
       311        2.0000           -0.3782521             -10.2928
       312        2.0000           -0.3738319             -10.1725
       313        2.0000           -0.3724930             -10.1361
       314        2.0000           -0.3722226             -10.1287
       315        1.9999           -0.3678819             -10.0106
       316        1.9996           -0.3593933              -9.7796
       317        1.9976           -0.3504082              -9.5351
       318        1.9959           -0.3477977              -9.4641
       319        1.9944           -0.3463200              -9.4238
       320        1.9930           -0.3452075              -9.3936
       321        1.9850           -0.3415763              -9.2948
       322        1.9722           -0.3386133              -9.2141 (HOMO)
       323        0.0323           -0.2988487              -8.1321 (LUMO)
       324        0.0157           -0.2953837              -8.0378
       325        0.0057           -0.2905639              -7.9066
       326        0.0055           -0.2904187              -7.9027
       327        0.0028           -0.2871397              -7.8135
       328        0.0004           -0.2777856              -7.5589
       329                         -0.2289175              -6.2292
       330                         -0.2287778              -6.2254
       331                         -0.2287040              -6.2234
       332                         -0.2259908              -6.1495
       333                         -0.2251293              -6.1261
       ...                                ...                  ...
       586                          0.6386323              17.3781
      -------------------------------------------------------------
                  HL-Gap            0.0397646 Eh            1.0820 eV
             Fermi-level           -0.3183765 Eh           -8.6635 eV

     #   Z          covCN         q      C6AA      α(0)
     1   7 N        2.629    -0.375    29.677     8.091
     2   1 H        0.860     0.159     1.342     1.814
     3   6 C        3.786     0.035    20.000     6.370
     4   1 H        0.925     0.068     2.105     2.269
     5   6 C        3.819    -0.071    21.847     6.652
     6   1 H        0.925     0.068     2.110     2.271
     7   1 H        0.925     0.048     2.347     2.396
     8   6 C        2.969     0.009    27.808     8.650
     9   6 C        2.915    -0.045    29.115     8.848
    10   1 H        0.925     0.052     2.300     2.372
    11   6 C        2.915    -0.040    29.003     8.831
    12   1 H        0.926     0.050     2.320     2.382
    13   6 C        2.906    -0.042    29.049     8.838
    14   1 H        0.926     0.044     2.400     2.423
    15   6 C        2.918    -0.032    28.810     8.802
    16   1 H        0.925     0.022     2.702     2.570
    17   6 C        2.905    -0.032    28.805     8.800
    18   1 H        0.925     0.008     2.919     2.672
    19   6 C        2.756     0.266    22.515     7.770
    20   8 O        0.866    -0.540    24.686     6.662
    21   7 N        2.694    -0.167    24.603     7.367
    22   1 H        0.860     0.211     1.050     1.605
    23   6 C        3.792     0.053    19.692     6.320
    24   1 H        0.924     0.089     1.892     2.151
    25   6 C        3.805    -0.081    22.049     6.685
    26   1 H        0.925     0.039     2.466     2.455
    27   1 H        0.924     0.058     2.219     2.329
    28   6 C        2.688     0.363    20.834     7.470
    29   8 O        0.857    -0.659    27.607     7.045
    30   8 O        0.857    -0.648    27.318     7.007
    31   6 C        2.761     0.210    23.558     7.948
    32   8 O        0.856    -0.373    21.141     6.165
    33   7 N        2.633    -0.365    29.430     8.057
    34   1 H        0.860     0.167     1.294     1.782
    35   6 C        3.785     0.048    19.789     6.336
    36   1 H        0.924     0.060     2.196     2.318
    37   6 C        3.813    -0.076    21.947     6.668
    38   1 H        0.924     0.058     2.219     2.330
    39   1 H        0.925     0.079     1.991     2.207
    40   6 C        2.964     0.010    27.782     8.646
    41   6 C        2.908    -0.044    29.088     8.844
    42   1 H        0.925     0.041     2.434     2.440
    43   6 C        2.926    -0.038    28.933     8.821
    44   1 H        0.926     0.029     2.600     2.521
    45   6 C        2.905    -0.040    29.000     8.830
    46   1 H        0.926     0.027     2.627     2.535
    47   6 C        2.911    -0.037    28.913     8.817
    48   1 H        0.925     0.033     2.548     2.496
    49   6 C        2.920    -0.043    29.079     8.843
    50   1 H        0.925     0.044     2.398     2.421
    51   6 C        2.758     0.205    23.636     7.961
    52   8 O        0.856    -0.385    21.381     6.199
    53   7 N        2.633    -0.371    29.573     8.077
    54   1 H        0.860     0.173     1.257     1.756
    55   6 C        3.786     0.027    20.128     6.390
    56   1 H        0.925     0.084     1.939     2.178
    57   6 C        3.807    -0.059    21.629     6.621
    58   1 H        0.924     0.058     2.219     2.330
    59   1 H        0.925     0.039     2.465     2.455
    60   6 C        3.803    -0.096    22.334     6.728
    61   1 H        0.925     0.071     2.078     2.254
    62   1 H        0.925     0.069     2.092     2.262
    63   6 C        2.743     0.293    22.033     7.686
    64   8 O        0.864    -0.547    24.855     6.684
    65   7 N        2.639    -0.279    27.213     7.748
    66   1 H        0.860     0.231     0.959     1.534
    67   1 H        0.860     0.245     0.905     1.490
    68   6 C        2.754     0.268    22.476     7.763
    69   8 O        0.860    -0.527    24.393     6.622
    70   7 N        2.688    -0.172    24.728     7.385
    71   1 H        0.860     0.216     1.029     1.589
    72   6 C        3.794     0.025    20.169     6.395
    73   1 H        0.925     0.079     1.989     2.206
    74   6 C        3.810    -0.050    21.455     6.593
    75   1 H        0.925     0.045     2.387     2.416
    76   1 H        0.925     0.045     2.382     2.414
    77   6 C        3.804    -0.098    22.375     6.734
    78   1 H        0.925     0.044     2.395     2.420
    79   1 H        0.925     0.033     2.539     2.492
    80   6 C        2.687     0.364    20.820     7.467
    81   8 O        0.857    -0.662    27.691     7.055
    82   8 O        0.856    -0.664    27.736     7.061
    83   6 C        2.751     0.268    22.473     7.762
    84   8 O        0.859    -0.519    24.201     6.596
    85   7 N        2.687    -0.160    24.453     7.344
    86   1 H        0.860     0.209     1.063     1.615
    87   6 C        3.798     0.023    20.187     6.397
    88   1 H        0.925     0.065     2.142     2.289
    89   6 C        3.855    -0.022    20.932     6.507
    90   1 H        0.924     0.052     2.293     2.368
    91   6 C        3.760    -0.110    22.658     6.786
    92   1 H        0.925     0.031     2.569     2.506
    93   1 H        0.924     0.056     2.247     2.344
    94   1 H        0.925     0.039     2.459     2.452
    95   6 C        3.765    -0.121    22.858     6.815
    96   1 H        0.925     0.043     2.412     2.429
    97   1 H        0.925     0.045     2.385     2.415
    98   1 H        0.924     0.058     2.227     2.333
    99   6 C        2.754     0.274    22.372     7.745
   100   8 O        0.858    -0.502    23.828     6.545
   101   7 N        2.688    -0.156    24.372     7.332
   102   1 H        0.860     0.209     1.062     1.615
   103   6 C        3.802     0.020    20.234     6.404
   104   1 H        0.924     0.083     1.953     2.185
   105   6 C        3.861    -0.029    21.049     6.525
   106   1 H        0.925     0.074     2.038     2.233
   107   6 C        3.757    -0.124    22.939     6.829
   108   1 H        0.924     0.058     2.219     2.330
   109   1 H        0.925     0.032     2.559     2.501
   110   1 H        0.925     0.059     2.213     2.327
   111   6 C        3.802    -0.063    21.700     6.632
   112   1 H        0.925     0.040     2.449     2.447
   113   1 H        0.924     0.027     2.625     2.534
   114   6 C        3.750    -0.116    22.794     6.809
   115   1 H        0.924     0.054     2.271     2.357
   116   1 H        0.925     0.040     2.445     2.445
   117   1 H        0.925     0.043     2.409     2.427
   118   6 C        2.760     0.277    22.316     7.736
   119   8 O        0.859    -0.503    23.842     6.547
   120   7 N        2.694    -0.178    24.846     7.403
   121   1 H        0.860     0.233     0.951     1.528
   122   6 C        3.796     0.033    20.016     6.371
   123   1 H        0.925     0.092     1.858     2.132
   124   6 C        3.814    -0.085    22.118     6.694
   125   1 H        0.925     0.081     1.970     2.195
   126   1 H        0.925     0.084     1.940     2.178
   127   6 C        3.799    -0.073    21.901     6.663
   128   1 H        0.924     0.070     2.089     2.260
   129   1 H        0.924     0.058     2.227     2.334
   130   6 C        3.739    -0.026    21.120     6.557
   131   1 H        0.925     0.089     1.888     2.149
   132   1 H        0.924     0.089     1.890     2.150
   133   7 N        2.694    -0.139    24.003     7.276
   134   1 H        0.860     0.231     0.961     1.535
   135   6 C        2.734     0.238    23.018     7.855
   136   7 N        2.650    -0.263    26.828     7.693
   137   1 H        0.860     0.254     0.867     1.458
   138   1 H        0.860     0.261     0.841     1.437
   139   7 N        2.647    -0.283    27.298     7.760
   140   1 H        0.860     0.258     0.854     1.447
   141   1 H        0.860     0.268     0.818     1.417
   142   6 C        2.757     0.213    23.484     7.936
   143   8 O        0.857    -0.376    21.211     6.175
   144   7 N        2.633    -0.374    29.654     8.088
   145   1 H        0.860     0.162     1.324     1.803
   146   6 C        3.784     0.042    19.886     6.352
   147   1 H        0.924     0.080     1.978     2.200
   148   6 C        3.812    -0.062    21.678     6.627
   149   1 H        0.925     0.055     2.252     2.347
   150   1 H        0.925     0.046     2.366     2.405
   151   6 C        2.961     0.004    27.934     8.669
   152   6 C        2.918    -0.043    29.065     8.841
   153   1 H        0.926     0.049     2.333     2.389
   154   6 C        2.907    -0.076    29.890     8.965
   155   1 H        0.926     0.040     2.451     2.448
   156   6 C        2.833     0.136    25.016     8.196
   157   8 O        1.660    -0.455    21.946     6.324
   158   1 H        0.806     0.352     0.584     1.200
   159   6 C        2.917    -0.063    29.560     8.916
   160   1 H        0.926     0.042     2.416     2.431
   161   6 C        2.910    -0.042    29.039     8.836
   162   1 H        0.926     0.052     2.296     2.370
   163   6 C        2.757     0.200    23.738     7.979
   164   8 O        0.857    -0.392    21.522     6.220
   165   7 N        2.632    -0.354    29.118     8.014
   166   1 H        0.860     0.171     1.269     1.764
   167   6 C        3.736    -0.017    20.965     6.534
   168   1 H        0.924     0.057     2.240     2.340
   169   1 H        0.924     0.074     2.042     2.235
   170   6 C        2.753     0.273    22.384     7.747
   171   8 O        0.859    -0.511    24.021     6.571
   172   7 N        2.689    -0.168    24.645     7.373
   173   1 H        0.860     0.223     0.998     1.565
   174   6 C        3.798     0.035    19.983     6.365
   175   1 H        0.925     0.074     2.041     2.234
   176   6 C        3.812    -0.066    21.750     6.638
   177   1 H        0.925     0.059     2.210     2.325
   178   1 H        0.925     0.078     1.999     2.211
   179   6 C        3.086     0.043    26.935     8.508
   180   7 N        1.927    -0.322    29.181     8.010
   181   6 C        3.028     0.081    26.161     8.390
   182   1 H        0.925     0.054     2.276     2.359
   183   7 N        2.794    -0.102    23.238     7.160
   184   1 H        0.860     0.226     0.981     1.551
   185   6 C        3.015    -0.036    28.880     8.815
   186   1 H        0.926     0.047     2.359     2.402
   187   6 C        2.764     0.196    23.815     7.992
   188   8 O        0.856    -0.364    20.970     6.140
   189   7 N        2.631    -0.384    29.935     8.126
   190   1 H        0.860     0.158     1.350     1.820
   191   6 C        3.787     0.024    20.190     6.400
   192   1 H        0.924     0.061     2.184     2.311
   193   6 C        3.856    -0.019    20.884     6.499
   194   1 H        0.925     0.047     2.359     2.402
   195   6 C        3.752    -0.107    22.614     6.781
   196   1 H        0.925     0.049     2.333     2.389
   197   1 H        0.924     0.043     2.403     2.424
   198   1 H        0.925     0.045     2.387     2.416
   199   6 C        3.805    -0.057    21.593     6.615
   200   1 H        0.925     0.034     2.536     2.490
   201   1 H        0.924     0.029     2.599     2.521
   202   6 C        3.750    -0.102    22.518     6.768
   203   1 H        0.924     0.034     2.524     2.485
   204   1 H        0.925     0.033     2.549     2.497
   205   1 H        0.924     0.021     2.714     2.576
   206   6 C        2.754     0.265    22.529     7.772
   207   8 O        0.862    -0.525    24.342     6.615
   208   7 N        2.696    -0.162    24.515     7.354
   209   1 H        0.860     0.229     0.971     1.544
   210   6 C        3.801     0.026    20.131     6.388
   211   1 H        0.925     0.089     1.890     2.150
   212   6 C        3.864    -0.018    20.848     6.493
   213   1 H        0.925     0.062     2.173     2.305
   214   6 C        3.763    -0.120    22.837     6.812
   215   1 H        0.924     0.051     2.302     2.373
   216   1 H        0.925     0.050     2.315     2.379
   217   1 H        0.925     0.040     2.445     2.445
   218   6 C        3.810    -0.055    21.557     6.609
   219   1 H        0.923     0.030     2.586     2.515
   220   1 H        0.925     0.041     2.439     2.442
   221   6 C        3.756    -0.104    22.539     6.769
   222   1 H        0.925     0.026     2.639     2.540
   223   1 H        0.924     0.034     2.534     2.489
   224   1 H        0.924     0.034     2.531     2.488
   225   6 C        2.760     0.204    23.659     7.965
   226   8 O        0.856    -0.372    21.128     6.163
   227   1 H        0.860     0.194     1.139     1.672
   228   1 H        0.923     0.062     2.177     2.307
   229   1 H        0.860     0.183     1.197     1.714
   230   1 H        0.923     0.046     2.365     2.405
   231   1 H        0.860     0.162     1.321     1.801
   232   1 H        0.923     0.068     2.105     2.269
   233   1 H        0.860     0.184     1.190     1.709
   234   1 H        0.923     0.075     2.030     2.228
   235   1 H        0.860     0.178     1.226     1.734
   236   1 H        0.923     0.071     2.071     2.251
   237   1 H        0.860     0.174     1.249     1.750
   238   1 H        0.923     0.075     2.034     2.231

 Mol. C6AA /au·bohr⁶  :     544445.014791
 Mol. C8AA /au·bohr⁸  :   12219484.877079
 Mol. α(0) /au        :       1117.020772


Wiberg/Mayer (AO) data.
largest (>0.10) Wiberg bond orders for each atom

 ---------------------------------------------------------------------------
     #   Z sym  total        # sym  WBO       # sym  WBO       # sym  WBO
 ---------------------------------------------------------------------------
     1   7 N    3.023 --     3 C    1.030     2 H    0.958   227 H    0.949
     2   1 H    0.975 --     1 N    0.958
     3   6 C    3.983 --     1 N    1.030     5 C    0.954     4 H    0.947
                            19 C    0.945
     4   1 H    0.994 --     3 C    0.947
     5   6 C    3.990 --     8 C    1.010     6 H    0.966     3 C    0.954
                             7 H    0.947
     6   1 H    0.994 --     5 C    0.966
     7   1 H    0.998 --     5 C    0.947
     8   6 C    3.987 --     9 C    1.416    17 C    1.402     5 C    1.010
                            13 C    0.110
     9   6 C    3.985 --    11 C    1.436     8 C    1.416    10 H    0.966
                            15 C    0.110
    10   1 H    0.997 --     9 C    0.966
    11   6 C    3.988 --    13 C    1.443     9 C    1.436    12 H    0.970
                            17 C    0.111
    12   1 H    0.997 --    11 C    0.970
    13   6 C    3.987 --    11 C    1.443    15 C    1.428    14 H    0.964
                             8 C    0.110
    14   1 H    0.998 --    13 C    0.964
    15   6 C    3.991 --    17 C    1.451    13 C    1.428    16 H    0.972
                             9 C    0.110
    16   1 H    0.999 --    15 C    0.972
    17   6 C    3.991 --    15 C    1.451     8 C    1.402    18 H    0.966
                            11 C    0.111
    18   1 H    1.000 --    17 C    0.966
    19   6 C    3.929 --    20 O    1.598    21 N    1.300     3 C    0.945
    20   8 O    1.900 --    19 C    1.598    21 N    0.185
    21   7 N    3.471 --    19 C    1.300    23 C    0.991    22 H    0.913
                            20 O    0.185
    22   1 H    0.955 --    21 N    0.913
    23   6 C    3.975 --    31 C    0.999    21 N    0.991    25 C    0.949
                            24 H    0.931
    24   1 H    0.992 --    23 C    0.931
    25   6 C    3.985 --    26 H    0.975    27 H    0.955    23 C    0.949
                            28 C    0.934
    26   1 H    0.998 --    25 C    0.975
    27   1 H    0.997 --    25 C    0.955
    28   6 C    3.937 --    30 O    1.499    29 O    1.482    25 C    0.934
    29   8 O    1.770 --    28 C    1.482    30 O    0.218
    30   8 O    1.790 --    28 C    1.499    29 O    0.218
    31   6 C    3.888 --    32 O    1.878    23 C    0.999   228 H    0.943
    32   8 O    2.031 --    31 C    1.878
    33   7 N    3.020 --    35 C    1.028    34 H    0.958   229 H    0.953
    34   1 H    0.972 --    33 N    0.958
    35   6 C    3.986 --    33 N    1.028    51 C    0.979    36 H    0.958
                            37 C    0.931
    36   1 H    0.996 --    35 C    0.958
    37   6 C    3.986 --    40 C    1.008    38 H    0.970    39 H    0.960
                            35 C    0.931
    38   1 H    0.996 --    37 C    0.970
    39   1 H    0.994 --    37 C    0.960
    40   6 C    3.987 --    49 C    1.413    41 C    1.411    37 C    1.008
                            45 C    0.107
    41   6 C    3.988 --    43 C    1.439    40 C    1.411    42 H    0.969
                            47 C    0.113
    42   1 H    0.998 --    41 C    0.969
    43   6 C    3.990 --    41 C    1.439    45 C    1.439    44 H    0.973
                            49 C    0.112
    44   1 H    0.999 --    43 C    0.973
    45   6 C    3.989 --    43 C    1.439    47 C    1.438    46 H    0.973
                            40 C    0.107
    46   1 H    0.999 --    45 C    0.973
    47   6 C    3.990 --    49 C    1.441    45 C    1.438    48 H    0.971
                            41 C    0.113
    48   1 H    0.999 --    47 C    0.971
    49   6 C    3.990 --    47 C    1.441    40 C    1.413    50 H    0.969
                            43 C    0.112
    50   1 H    0.998 --    49 C    0.969
    51   6 C    3.879 --    52 O    1.887    35 C    0.979   230 H    0.941
    52   8 O    2.032 --    51 C    1.887
    53   7 N    3.021 --    55 C    1.018   231 H    0.958    54 H    0.956
    54   1 H    0.970 --    53 N    0.956
    55   6 C    3.983 --    53 N    1.018    57 C    0.987    56 H    0.941
                            68 C    0.940
    56   1 H    0.993 --    55 C    0.941
    57   6 C    3.991 --    60 C    0.992    55 C    0.987    59 H    0.976
                            58 H    0.967
    58   1 H    0.997 --    57 C    0.967
    59   1 H    0.998 --    57 C    0.976
    60   6 C    3.989 --    57 C    0.992    63 C    0.970    62 H    0.969
                            61 H    0.967
    61   1 H    0.995 --    60 C    0.967
    62   1 H    0.995 --    60 C    0.969
    63   6 C    3.938 --    64 O    1.611    65 N    1.332    60 C    0.970
    64   8 O    1.900 --    63 C    1.611    65 N    0.196
    65   7 N    3.407 --    63 C    1.332    66 H    0.922    67 H    0.918
                            64 O    0.196
    66   1 H    0.946 --    65 N    0.922
    67   1 H    0.940 --    65 N    0.918
    68   6 C    3.931 --    69 O    1.623    70 N    1.284    55 C    0.940
    69   8 O    1.919 --    68 C    1.623    70 N    0.184
    70   7 N    3.465 --    68 C    1.284    72 C    0.990    71 H    0.916
                            69 O    0.184
    71   1 H    0.953 --    70 N    0.916
    72   6 C    3.969 --    70 N    0.990    74 C    0.977    73 H    0.941
                            83 C    0.935
    73   1 H    0.993 --    72 C    0.941
    74   6 C    3.991 --    77 C    1.003    72 C    0.977    76 H    0.976
                            75 H    0.971
    75   1 H    0.997 --    74 C    0.971
    76   1 H    0.998 --    74 C    0.976
    77   6 C    3.990 --    74 C    1.003    79 H    0.969    78 H    0.968
                            80 C    0.934
    78   1 H    0.998 --    77 C    0.968
    79   1 H    0.999 --    77 C    0.969
    80   6 C    3.932 --    81 O    1.489    82 O    1.486    77 C    0.934
    81   8 O    1.774 --    80 C    1.489    82 O    0.214
    82   8 O    1.772 --    80 C    1.486    81 O    0.214
    83   6 C    3.949 --    84 O    1.616    85 N    1.312    72 C    0.935
    84   8 O    1.929 --    83 C    1.616    85 N    0.197
    85   7 N    3.480 --    83 C    1.312    87 C    0.983    86 H    0.907
                            84 O    0.197
    86   1 H    0.956 --    85 N    0.907
    87   6 C    3.963 --    85 N    0.983    89 C    0.959    99 C    0.944
                            88 H    0.944
    88   1 H    0.996 --    87 C    0.944
    89   6 C    3.989 --    91 C    1.006    95 C    1.003    90 H    0.964
                            87 C    0.959
    90   1 H    0.997 --    89 C    0.964
    91   6 C    3.993 --    89 C    1.006    92 H    0.986    94 H    0.985
                            93 H    0.983
    92   1 H    0.999 --    91 C    0.986
    93   1 H    0.996 --    91 C    0.983
    94   1 H    0.998 --    91 C    0.985
    95   6 C    3.994 --    89 C    1.003    96 H    0.986    98 H    0.985
                            97 H    0.985
    96   1 H    0.998 --    95 C    0.986
    97   1 H    0.998 --    95 C    0.985
    98   1 H    0.997 --    95 C    0.985
    99   6 C    3.957 --   100 O    1.621   101 N    1.316    87 C    0.944
   100   8 O    1.937 --    99 C    1.621   101 N    0.196
   101   7 N    3.475 --    99 C    1.316   103 C    0.973   102 H    0.911
                           100 O    0.196
   102   1 H    0.956 --   101 N    0.911
   103   6 C    3.957 --   101 N    0.973   105 C    0.970   104 H    0.942
                           118 C    0.940
   104   1 H    0.993 --   103 C    0.942
   105   6 C    3.986 --   107 C    1.003   111 C    0.995   103 C    0.970
                           106 H    0.958
   106   1 H    0.994 --   105 C    0.958
   107   6 C    3.990 --   105 C    1.003   108 H    0.984   110 H    0.981
                           109 H    0.978
   108   1 H    0.997 --   107 C    0.984
   109   1 H    0.999 --   107 C    0.978
   110   1 H    0.996 --   107 C    0.981
   111   6 C    3.996 --   114 C    1.017   105 C    0.995   112 H    0.976
                           113 H    0.974
   112   1 H    0.998 --   111 C    0.976
   113   1 H    0.999 --   111 C    0.974
   114   6 C    3.993 --   111 C    1.017   117 H    0.987   116 H    0.986
                           115 H    0.984
   115   1 H    0.997 --   114 C    0.984
   116   1 H    0.998 --   114 C    0.986
   117   1 H    0.998 --   114 C    0.987
   118   6 C    3.949 --   119 O    1.644   120 N    1.287   103 C    0.940
   119   8 O    1.961 --   118 C    1.644   120 N    0.196
   120   7 N    3.451 --   118 C    1.287   122 C    0.974   121 H    0.911
                           119 O    0.196
   121   1 H    0.946 --   120 N    0.911
   122   6 C    3.958 --   142 C    0.981   120 N    0.974   124 C    0.959
                           123 H    0.944
   123   1 H    0.991 --   122 C    0.944
   124   6 C    3.976 --   127 C    1.004   125 H    0.968   126 H    0.968
                           122 C    0.959
   125   1 H    0.993 --   124 C    0.968
   126   1 H    0.993 --   124 C    0.968
   127   6 C    3.989 --   130 C    1.007   124 C    1.004   129 H    0.975
                           128 H    0.973
   128   1 H    0.995 --   127 C    0.973
   129   1 H    0.997 --   127 C    0.975
   130   6 C    3.958 --   127 C    1.007   133 N    0.985   132 H    0.960
                           131 H    0.958
   131   1 H    0.992 --   130 C    0.958
   132   1 H    0.992 --   130 C    0.960
   133   7 N    3.470 --   135 C    1.318   130 C    0.985   134 H    0.915
                           136 N    0.102
   134   1 H    0.947 --   133 N    0.915
   135   6 C    3.975 --   136 N    1.324   133 N    1.318   139 N    1.301
   136   7 N    3.390 --   135 C    1.324   138 H    0.913   137 H    0.911
                           133 N    0.102
   137   1 H    0.935 --   136 N    0.911
   138   1 H    0.932 --   136 N    0.913
   139   7 N    3.355 --   135 C    1.301   140 H    0.914   141 H    0.907
   140   1 H    0.934 --   139 N    0.914
   141   1 H    0.928 --   139 N    0.907
   142   6 C    3.879 --   143 O    1.892   122 C    0.981   232 H    0.935
   143   8 O    2.042 --   142 C    1.892
   144   7 N    3.011 --   146 C    1.029   145 H    0.955   233 H    0.951
   145   1 H    0.974 --   144 N    0.955
   146   6 C    3.986 --   144 N    1.029   163 C    0.991   148 C    0.957
                           147 H    0.916
   147   1 H    0.993 --   146 C    0.916
   148   6 C    3.988 --   151 C    1.005   150 H    0.969   149 H    0.959
                           146 C    0.957
   149   1 H    0.996 --   148 C    0.959
   150   1 H    0.998 --   148 C    0.969
   151   6 C    3.986 --   161 C    1.414   152 C    1.398   148 C    1.005
   152   6 C    3.989 --   154 C    1.462   151 C    1.398   153 H    0.969
                           159 C    0.106
   153   1 H    0.998 --   152 C    0.969
   154   6 C    3.985 --   152 C    1.462   156 C    1.360   155 H    0.967
                           161 C    0.106
   155   1 H    0.998 --   154 C    0.967
   156   6 C    3.930 --   159 C    1.373   154 C    1.360   157 O    1.063
   157   8 O    2.071 --   156 C    1.063   158 H    0.854
   158   1 H    0.876 --   157 O    0.854
   159   6 C    3.984 --   161 C    1.442   156 C    1.373   160 H    0.961
                           152 C    0.106
   160   1 H    0.998 --   159 C    0.961
   161   6 C    3.987 --   159 C    1.442   151 C    1.414   162 H    0.966
                           154 C    0.106
   162   1 H    0.997 --   161 C    0.966
   163   6 C    3.880 --   164 O    1.865   146 C    0.991   234 H    0.932
   164   8 O    2.043 --   163 C    1.865
   165   7 N    3.012 --   167 C    1.028   235 H    0.954   166 H    0.946
   166   1 H    0.970 --   165 N    0.946
   167   6 C    3.983 --   165 N    1.028   168 H    0.963   169 H    0.955
                           170 C    0.944
   168   1 H    0.994 --   167 C    0.963
   169   1 H    0.994 --   167 C    0.955
   170   6 C    3.935 --   171 O    1.633   172 N    1.285   167 C    0.944
   171   8 O    1.938 --   170 C    1.633   172 N    0.190
   172   7 N    3.454 --   170 C    1.285   174 C    0.976   173 H    0.908
                           171 O    0.190
   173   1 H    0.950 --   172 N    0.908
   174   6 C    3.972 --   187 C    0.988   172 N    0.976   175 H    0.954
                           176 C    0.940
   175   1 H    0.994 --   174 C    0.954
   176   6 C    3.987 --   179 C    1.012   177 H    0.965   178 H    0.956
                           174 C    0.940
   177   1 H    0.996 --   176 C    0.965
   178   1 H    0.994 --   176 C    0.956
   179   6 C    3.974 --   185 C    1.559   180 N    1.275   176 C    1.012
   180   7 N    2.997 --   181 C    1.525   179 C    1.275   183 N    0.103
   181   6 C    3.956 --   180 N    1.525   183 N    1.290   182 H    0.963
                           185 C    0.119
   182   1 H    0.997 --   181 C    0.963
   183   7 N    3.594 --   181 C    1.290   185 C    1.212   184 H    0.919
                           180 N    0.103
   184   1 H    0.948 --   183 N    0.919
   185   6 C    3.940 --   179 C    1.559   183 N    1.212   186 H    0.962
                           181 C    0.119
   186   1 H    0.998 --   185 C    0.962
   187   6 C    3.851 --   188 O    1.855   174 C    0.988   236 H    0.938
   188   8 O    2.048 --   187 C    1.855
   189   7 N    2.993 --   191 C    1.013   237 H    0.954   190 H    0.947
   190   1 H    0.975 --   189 N    0.947
   191   6 C    3.973 --   189 N    1.013   193 C    0.956   192 H    0.953
                           206 C    0.941
   192   1 H    0.995 --   191 C    0.953
   193   6 C    3.990 --   195 C    1.007   199 C    0.998   194 H    0.959
                           191 C    0.956
   194   1 H    0.996 --   193 C    0.959
   195   6 C    3.993 --   193 C    1.007   196 H    0.982   198 H    0.979
                           197 H    0.976
   196   1 H    0.997 --   195 C    0.982
   197   1 H    0.998 --   195 C    0.976
   198   1 H    0.998 --   195 C    0.979
   199   6 C    3.993 --   202 C    1.011   193 C    0.998   200 H    0.978
                           201 H    0.959
   200   1 H    0.999 --   199 C    0.978
   201   1 H    0.999 --   199 C    0.959
   202   6 C    3.995 --   199 C    1.011   204 H    0.989   205 H    0.987
                           203 H    0.987
   203   1 H    0.999 --   202 C    0.987
   204   1 H    0.999 --   202 C    0.989
   205   1 H    0.999 --   202 C    0.987
   206   6 C    3.942 --   207 O    1.612   208 N    1.306   191 C    0.941
   207   8 O    1.919 --   206 C    1.612   208 N    0.191
Note: The following floating-point exceptions are signalling: IEEE_UNDERFLOW_FLAG IEEE_DENORMAL
normal termination of xtb
   208   7 N    3.471 --   206 C    1.306   210 C    0.968   209 H    0.887
                           207 O    0.191
   209   1 H    0.948 --   208 N    0.887
   210   6 C    3.962 --   225 C    0.982   208 N    0.968   211 H    0.953
                           212 C    0.948
   211   1 H    0.992 --   210 C    0.953
   212   6 C    3.987 --   214 C    1.005   218 C    0.998   213 H    0.960
                           210 C    0.948
   213   1 H    0.996 --   212 C    0.960
   214   6 C    3.993 --   212 C    1.005   215 H    0.984   216 H    0.983
                           217 H    0.983
   215   1 H    0.997 --   214 C    0.984
   216   1 H    0.997 --   214 C    0.983
   217   1 H    0.998 --   214 C    0.983
   218   6 C    3.992 --   221 C    1.013   212 C    0.998   220 H    0.972
                           219 H    0.966
   219   1 H    0.999 --   218 C    0.966
   220   1 H    0.998 --   218 C    0.972
   221   6 C    3.996 --   218 C    1.013   224 H    0.987   223 H    0.982
                           222 H    0.980
   222   1 H    0.998 --   221 C    0.980
   223   1 H    0.999 --   221 C    0.982
   224   1 H    0.999 --   221 C    0.987
   225   6 C    3.868 --   226 O    1.878   210 C    0.982   238 H    0.937
   226   8 O    2.037 --   225 C    1.878
   227   1 H    0.962 --     1 N    0.949
   228   1 H    0.995 --    31 C    0.943
   229   1 H    0.966 --    33 N    0.953
   230   1 H    0.998 --    51 C    0.941
   231   1 H    0.974 --    53 N    0.958
   232   1 H    0.995 --   142 C    0.935
   233   1 H    0.966 --   144 N    0.951
   234   1 H    0.994 --   163 C    0.932
   235   1 H    0.968 --   165 N    0.954
   236   1 H    0.994 --   187 C    0.938
   237   1 H    0.969 --   189 N    0.954
   238   1 H    0.994 --   225 C    0.937
 ---------------------------------------------------------------------------

Topologies differ in total number of bonds
Writing topology from bond orders to xtbtopo.mol

molecular dipole:
                 x           y           z       tot (Debye)
 q only:       -9.178     -22.018    -129.872
   full:      -10.020     -22.820    -129.171     334.376
molecular quadrupole (traceless):
                xx          xy          yy          xz          yz          zz
 q only:     9408.289     142.449    6794.907   -4070.288   -5060.076  -16203.196
  q+dip:     9256.959      63.730    6758.196   -4138.742   -5143.628  -16015.155
   full:     9260.018      62.490    6759.565   -4141.034   -5141.462  -16019.583


           -------------------------------------------------
          | TOTAL ENERGY             -362.217415897943 Eh   |
          | GRADIENT NORM               0.283602258532 Eh/α |
          | HOMO-LUMO GAP               1.082049911010 eV   |
           -------------------------------------------------

------------------------------------------------------------------------
 * finished run on 2026/01/05 at 09:07:01.745     
------------------------------------------------------------------------
 total:
 * wall-time:     0 d,  0 h,  0 min,  1.574 sec
 *  cpu-time:     0 d,  0 h,  0 min, 22.754 sec
 * ratio c/w:    14.459 speedup
 SCF:
 * wall-time:     0 d,  0 h,  0 min,  1.494 sec
 *  cpu-time:     0 d,  0 h,  0 min, 21.576 sec
 * ratio c/w:    14.440 speedup

