      -----------------------------------------------------------      
     |                   =====================                   |     
     |                           x T B                           |     
     |                   =====================                   |     
     |                         S. Grimme                         |     
     |          Mulliken Center for Theoretical Chemistry        |     
     |                    University of Bonn                     |     
      -----------------------------------------------------------      

   * xtb version 6.7.1 (edcfbbe) compiled by 'conda@c0858423619e' on 2025-09-04

   xtb is free software: you can redistribute it and/or modify it under
   the terms of the GNU Lesser General Public License as published by
   the Free Software Foundation, either version 3 of the License, or
   (at your option) any later version.
   
   xtb is distributed in the hope that it will be useful,
   but WITHOUT ANY WARRANTY; without even the implied warranty of
   MERCHANTABILITY or FITNESS FOR A PARTICULAR PURPOSE.  See the
   GNU Lesser General Public License for more details.
   
   Cite this work as:
   * C. Bannwarth, E. Caldeweyher, S. Ehlert, A. Hansen, P. Pracht,
     J. Seibert, S. Spicher, S. Grimme, WIREs Comput. Mol. Sci., 2020, 11,
     e01493. DOI: 10.1002/wcms.1493
   
   for GFN2-xTB:
   * C. Bannwarth, S. Ehlert and S. Grimme., J. Chem. Theory Comput., 2019,
     15, 1652-1671. DOI: 10.1021/acs.jctc.8b01176
   for GFN1-xTB:
   * S. Grimme, C. Bannwarth, P. Shushkov, J. Chem. Theory Comput., 2017,
     13, 1989-2009. DOI: 10.1021/acs.jctc.7b00118
   for GFN0-xTB:
   * P. Pracht, E. Caldeweyher, S. Ehlert, S. Grimme, ChemRxiv, 2019, preprint.
     DOI: 10.26434/chemrxiv.8326202.v1
   for GFN-FF:
   * S. Spicher and S. Grimme, Angew. Chem. Int. Ed., 2020, 59, 15665-15673.
     DOI: 10.1002/anie.202004239
   
   for ALPB and GBSA implicit solvation:
   * S. Ehlert, M. Stahn, S. Spicher, S. Grimme, J. Chem. Theory Comput.,
     2021, 17, 4250-4261. DOI: 10.1021/acs.jctc.1c00471
   
   for ddCOSMO and CPCM-X implicit solvation:
   * M. Stahn, S. Ehlert, S. Grimme, J. Phys. Chem. A,
     2023, XX, XXXX-XXXX. DOI: 10.1021/acs.jpca.3c04382
   
   for DFT-D4:
   * E. Caldeweyher, C. Bannwarth and S. Grimme, J. Chem. Phys., 2017,
     147, 034112. DOI: 10.1063/1.4993215
   * E. Caldeweyher, S. Ehlert, A. Hansen, H. Neugebauer, S. Spicher,
     C. Bannwarth and S. Grimme, J. Chem. Phys., 2019, 150, 154122.
     DOI: 10.1063/1.5090222
   * E. Caldeweyher, J.-M. Mewes, S. Ehlert and S. Grimme, Phys. Chem. Chem. Phys.
     2020, 22, 8499-8512. DOI: 10.1039/D0CP00502A
   
   for sTDA-xTB:
   * S. Grimme and C. Bannwarth, J. Chem. Phys., 2016, 145, 054103.
     DOI: 10.1063/1.4959605
   
   in the mass-spec context:
   * V. Asgeirsson, C. Bauer and S. Grimme, Chem. Sci., 2017, 8, 4879.
     DOI: 10.1039/c7sc00601b
   * J. Koopman and S. Grimme, ACS Omega 2019, 4, 12, 15120-15133.
     DOI: 10.1021/acsomega.9b02011
   
   for metadynamics refer to:
   * S. Grimme, J. Chem. Theory Comput., 2019, 155, 2847-2862
     DOI: 10.1021/acs.jctc.9b00143
   
   for SPH calculations refer to:
   * S. Spicher and S. Grimme, J. Chem. Theory Comput., 2021, 17, 1701-1714
     DOI: 10.1021/acs.jctc.0c01306
   
   for ONIOM refer to:
   * C. Plett, A. Katbashev, S. Ehlert, S. Grimme, M. Bursch,
     Phys. Chem. Chem. Phys., 2023, 25, 17860-17868. DOI: 10.1039/D3CP02178E
   
   for DIPRO refer to:
   * J. Kohn, N. Gildemeister, S. Grimme, D. Fazzi, A. Hansen,
     J. Chem. Phys., 2023, just accepted.
   
   for PTB refer to:
   * S. Grimme, M. Mueller, A. Hansen, J. Chem. Phys., 2023, 158, 124111.
     DOI: 10.1063/5.0137838
   
   with help from (in alphabetical order)
   P. Atkinson, C. Bannwarth, F. Bohle, G. Brandenburg, E. Caldeweyher
   M. Checinski, S. Dohm, S. Ehlert, S. Ehrlich, I. Gerasimov, C. Hölzer
   A. Katbashev, J. Kohn, J. Koopman, C. Lavigne, S. Lehtola, F. März, M. Müller,
   F. Musil, H. Neugebauer, J. Pisarek, C. Plett, P. Pracht, F. Pultar,
   J. Seibert, P. Shushkov, S. Spicher, M. Stahn, M. Steiner, T. Strunk,
   J. Stückrath, T. Rose, and J. Unsleber
   
 * started run on 2026/01/05 at 09:06:31.220     
   ID    Z sym.   atoms
    1    7 N      1, 22, 42, 54, 67, 70, 73, 78, 90, 95, 110, 126, 145, 166,
                  174, 177, 183, 202
    2    1 H      2, 4, 6, 7, 10, 12, 15, 17, 19, 23, 25, 27, 28, 31, 33, 35,
                  37, 39, 43, 45, 47, 48, 55, 57, 59, 60, 62, 63, 65, 66, 68,
                  71, 72, 74, 75, 79, 81, 83, 84, 86, 87, 91, 92, 96, 98,
                  100, 101, 103, 104, 111, 113, 115, 117-119, 121-123, 127,
                  129, 131, 133-135, 137, 138, 140-142, 146, 148, 150, 151,
                  154, 156, 159, 161, 163, 167, 169, 171, 172, 176, 178, 180,
                  184, 186, 188, 190-192, 194, 195, 197-199, 203, 205, 207,
                  209-211, 213, 214, 216-218, 221-234
    3    6 C      3, 5, 8, 9, 11, 13, 16, 18, 20, 24, 26, 29, 30, 32, 34, 36,
                  38, 40, 44, 46, 49, 52, 56, 58, 61, 64, 69, 76, 80, 82, 85,
                  88, 93, 97, 99, 102, 105, 108, 112, 114, 116, 120, 124,
                  128, 130, 132, 136, 139, 143, 147, 149, 152, 153, 155, 157,
                  160, 162, 164, 168, 170, 173, 175, 179, 181, 185, 187, 189,
                  193, 196, 200, 204, 206, 208, 212, 215, 219
    4    8 O      14, 21, 41, 50, 51, 53, 77, 89, 94, 106, 107, 109, 125,
                  144, 158, 165, 182, 201, 220

           -------------------------------------------------
          |                Calculation Setup                |
           -------------------------------------------------

          program call               : xtb /home/antonio_mesquita/Documentos/gmx_ISA_project/testes_arquivos_primeiros/gmx_ISA_testes/testes_qm_xtb/QM_analysis/QM_FRAMES_CAPPED/frame_1600ps/residues_pocket_capped_1600ps.xyz --gfn 2 --alpb water --chrg -1 --etemp 1500 --cycles 1000
          coordinate file            : /home/antonio_mesquita/Documentos/gmx_ISA_project/testes_arquivos_primeiros/gmx_ISA_testes/testes_qm_xtb/QM_analysis/QM_FRAMES_CAPPED/frame_1600ps/residues_pocket_capped_1600ps.xyz
          omp threads                :                    16


molecular fragmentation (1/2 indicates fragments):
111111111111111111111222222222222222222222222222222222222222222222222222
222222222222222222222222222222222222222222222222222222222222222222222222
222222222222222222222222222222222222222222222222222222222222222222222222
222211222222222222
# atoms in fragment 1/2:    23   211
 fragment masses (1/2) :      165.19     1425.70
CMA distance (Bohr)    :  16.233
constraining FC (au)   :  0.0500

           -------------------------------------------------
          |                 G F N 2 - x T B                 |
           -------------------------------------------------

        Reference                      10.1021/acs.jctc.8b01176
      * Hamiltonian:
        H0-scaling (s, p, d)           1.850000    2.230000    2.230000
        zeta-weighting                 0.500000
      * Dispersion:
        s8                             2.700000
        a1                             0.520000
        a2                             5.000000
        s9                             5.000000
      * Repulsion:
        kExp                           1.500000    1.000000
        rExp                           1.000000
      * Coulomb:
        alpha                          2.000000
        third order                    shell-resolved
        anisotropic                    true
        a3                             3.000000
        a5                             4.000000
        cn-shift                       1.200000
        cn-exp                         4.000000
        max-rad                        5.000000

      * Solvation model:               ALPB
        Solvent                        water
        Parameter file                 internal GFN2-xTB/ALPB
        Dielectric constant                8.0200E+01
        Reference state                gsolv [1 M gas/solution]
        Free energy shift                  1.0808E-03 Eh       6.7819E-01 kcal/mol
        Temperature                        2.9815E+02 K
        Density                            1.0000E+00 kg/L
        Solvent mass                       1.8000E+01 g/mol
        Interaction kernel             P16
        Born radius scaling (c1)           1.4744E+00
        Born radii integrator          GBOBC
        Born offset                        0.0000E+00 a0       0.0000E+00 AA
        H-bond correction              true
        Ion screening                  false
        Surface tension                    1.0000E-05 Eh       1.5569E+01 dyn/cm
        Grid points                               230 per atom

          ...................................................
          :                      SETUP                      :
          :.................................................:
          :  # basis functions                 573          :
          :  # atomic orbitals                 573          :
          :  # shells                          347          :
          :  # electrons                       630          :
          :  max. iterations                   250          :
          :  Hamiltonian                  GFN2-xTB          :
          :  restarted?                      false          :
          :  GBSA solvation                   true          :
          :  PC potential                    false          :
          :  electronic temp.         1500.0000000     K    :
          :  accuracy                    1.0000000          :
          :  -> integral cutoff          0.2500000E+02      :
          :  -> integral neglect         0.1000000E-07      :
          :  -> SCF convergence          0.1000000E-05 Eh   :
          :  -> wf. convergence          0.1000000E-03 e    :
          :  Broyden damping             0.4000000          :
          :  net charge                         -1          :
          :  unpaired electrons                  0          :
          ...................................................

 iter      E             dE          RMSdq      gap      omega  full diag
   1   -357.9578722 -0.357958E+03  0.441E+00    1.65       0.0  T
   2   -358.7095223 -0.751650E+00  0.225E+00    1.03       1.0  T
   3   -358.7340586 -0.245363E-01  0.122E+00    1.65       1.0  T
   4   -358.7704504 -0.363917E-01  0.280E-01    1.07       1.0  T
   5   -358.7793303 -0.887996E-02  0.111E-01    1.24       1.0  T
   6   -358.7796505 -0.320182E-03  0.585E-02    1.17       1.0  T
   7   -358.7798035 -0.152948E-03  0.236E-02    1.18       1.0  T
   8   -358.7798302 -0.267455E-04  0.887E-03    1.18       1.0  T
   9   -358.7798341 -0.390313E-05  0.411E-03    1.18       1.6  T
  10   -358.7798348 -0.681274E-06  0.189E-03    1.18       3.5  T
  11   -358.7798349 -0.141509E-06  0.834E-04    1.18       7.8  T
  12   -358.7798350 -0.426101E-07  0.357E-04    1.18      18.3  T

   *** convergence criteria satisfied after 12 iterations ***

         #    Occupation            Energy/Eh            Energy/eV
      -------------------------------------------------------------
         1        2.0000           -0.7348540             -19.9964
       ...           ...                  ...                  ...
       309        1.9995           -0.3543059              -9.6412
       310        1.9955           -0.3441563              -9.3650
       311        1.9948           -0.3434263              -9.3451
       312        1.9947           -0.3433339              -9.3426
       313        1.9927           -0.3418108              -9.3011
       314        1.9918           -0.3412911              -9.2870
       315        1.9818           -0.3374594              -9.1827 (HOMO)
       316        0.0238           -0.2941818              -8.0051 (LUMO)
       317        0.0116           -0.2907282              -7.9111
       318        0.0060           -0.2875819              -7.8255
       319        0.0047           -0.2864757              -7.7954
       320        0.0015           -0.2809865              -7.6460
       ...           ...                  ...                  ...
       573                          0.6308330              17.1658
      -------------------------------------------------------------
                  HL-Gap            0.0432775 Eh            1.1776 eV
             Fermi-level           -0.3151731 Eh           -8.5763 eV

 SCC (total)                   0 d,  0 h,  0 min,  1.797 sec
 SCC setup                      ...        0 min,  0.010 sec (  0.572%)
 Dispersion                     ...        0 min,  0.019 sec (  1.034%)
 classical contributions        ...        0 min,  0.003 sec (  0.187%)
 integral evaluation            ...        0 min,  0.051 sec (  2.865%)
 iterations                     ...        0 min,  1.513 sec ( 84.197%)
 molecular gradient             ...        0 min,  0.193 sec ( 10.719%)
 printout                       ...        0 min,  0.008 sec (  0.422%)

         :::::::::::::::::::::::::::::::::::::::::::::::::::::
         ::                     SUMMARY                     ::
         :::::::::::::::::::::::::::::::::::::::::::::::::::::
         :: total energy            -354.424265687697 Eh    ::
         :: total w/o Gsasa/hb      -354.388815411348 Eh    ::
         :: gradient norm              0.317508831858 Eh/a0 ::
         :: HOMO-LUMO gap              1.177641977183 eV    ::
         ::.................................................::
         :: SCC energy              -358.770781346844 Eh    ::
         :: -> isotropic ES            1.091336446669 Eh    ::
         :: -> anisotropic ES          0.026850591363 Eh    ::
         :: -> anisotropic XC          0.143319133704 Eh    ::
         :: -> dispersion             -0.247101440333 Eh    ::
         :: -> Gsolv                  -0.301962682390 Eh    ::
         ::    -> Gelec               -0.266512406041 Eh    ::
         ::    -> Gsasa                0.010195166160 Eh    ::
         ::    -> Ghb                 -0.046726202207 Eh    ::
         ::    -> Gshift               0.001080759698 Eh    ::
         :: repulsion energy           4.346515659147 Eh    ::
         :: add. restraining           0.000000000000 Eh    ::
         :: total charge              -0.999999999857 e     ::
         :::::::::::::::::::::::::::::::::::::::::::::::::::::

           -------------------------------------------------
          |                Property Printout                |
           -------------------------------------------------

    * Orbital Energies and Occupations

         #    Occupation            Energy/Eh            Energy/eV
      -------------------------------------------------------------
         1        2.0000           -0.7348540             -19.9964
       ...           ...                  ...                  ...
       303        2.0000           -0.3854299             -10.4881
       304        2.0000           -0.3778416             -10.2816
       305        2.0000           -0.3699093             -10.0657
       306        2.0000           -0.3660627              -9.9611
       307        1.9999           -0.3631450              -9.8817
       308        1.9999           -0.3620599              -9.8522
       309        1.9995           -0.3543059              -9.6412
       310        1.9955           -0.3441563              -9.3650
       311        1.9948           -0.3434263              -9.3451
       312        1.9947           -0.3433339              -9.3426
       313        1.9927           -0.3418108              -9.3011
       314        1.9918           -0.3412911              -9.2870
       315        1.9818           -0.3374594              -9.1827 (HOMO)
       316        0.0238           -0.2941818              -8.0051 (LUMO)
       317        0.0116           -0.2907282              -7.9111
       318        0.0060           -0.2875819              -7.8255
       319        0.0047           -0.2864757              -7.7954
       320        0.0015           -0.2809865              -7.6460
       321        0.0010           -0.2789390              -7.5903
       322        0.0008           -0.2782043              -7.5703
       323                         -0.2262154              -6.1556
       324                         -0.2246382              -6.1127
       325                         -0.2235562              -6.0833
       326                         -0.2235138              -6.0821
       ...                                ...                  ...
       573                          0.6308330              17.1658
      -------------------------------------------------------------
                  HL-Gap            0.0432775 Eh            1.1776 eV
             Fermi-level           -0.3151731 Eh           -8.5763 eV

     #   Z          covCN         q      C6AA      α(0)
     1   7 N        2.633    -0.363    29.360     8.047
     2   1 H        0.860     0.161     1.332     1.808
     3   6 C        3.787     0.044    19.844     6.345
     4   1 H        0.925     0.075     2.027     2.226
     5   6 C        3.812    -0.077    21.957     6.670
     6   1 H        0.923     0.072     2.060     2.245
     7   1 H        0.924     0.052     2.291     2.367
     8   6 C        2.963    -0.007    28.194     8.709
     9   6 C        2.915    -0.049    29.217     8.864
    10   1 H        0.926     0.036     2.500     2.472
    11   6 C        2.905    -0.070    29.747     8.943
    12   1 H        0.926     0.023     2.693     2.566
    13   6 C        2.834     0.137    24.995     8.193
    14   8 O        1.659    -0.443    21.690     6.287
    15   1 H        0.805     0.336     0.623     1.239
    16   6 C        2.910    -0.068    29.684     8.934
    17   1 H        0.925     0.048     2.348     2.396
    18   6 C        2.910    -0.046    29.150     8.853
    19   1 H        0.926     0.059     2.212     2.326
    20   6 C        2.761     0.208    23.593     7.954
    21   8 O        0.856    -0.387    21.418     6.205
    22   7 N        2.632    -0.373    29.629     8.084
    23   1 H        0.860     0.159     1.342     1.815
    24   6 C        3.785     0.041    19.900     6.354
    25   1 H        0.925     0.065     2.143     2.289
    26   6 C        3.809    -0.073    21.883     6.659
    27   1 H        0.925     0.056     2.246     2.344
    28   1 H        0.925     0.040     2.453     2.449
    29   6 C        2.954     0.009    27.811     8.650
    30   6 C        2.928    -0.040    29.002     8.832
    31   1 H        0.926     0.038     2.469     2.457
    32   6 C        2.906    -0.038    28.933     8.820
    33   1 H        0.925     0.046     2.373     2.409
    34   6 C        2.914    -0.039    28.976     8.827
    35   1 H        0.926     0.040     2.445     2.445
    36   6 C        2.912    -0.036    28.893     8.814
    37   1 H        0.926     0.030     2.579     2.511
    38   6 C        2.918    -0.041    29.026     8.835
    39   1 H        0.926     0.017     2.785     2.609
    40   6 C        2.754     0.268    22.468     7.762
    41   8 O        0.862    -0.535    24.578     6.647
    42   7 N        2.693    -0.151    24.268     7.316
    43   1 H        0.860     0.207     1.073     1.623
    44   6 C        3.797     0.036    19.978     6.364
    45   1 H        0.924     0.092     1.858     2.132
    46   6 C        3.813    -0.080    22.020     6.679
    47   1 H        0.924     0.041     2.430     2.438
    48   1 H        0.924     0.068     2.110     2.272
    49   6 C        2.693     0.357    20.946     7.490
    50   8 O        0.857    -0.604    26.213     6.864
    51   8 O        0.857    -0.600    26.122     6.852
    52   6 C        2.758     0.205    23.647     7.963
    53   8 O        0.856    -0.359    20.882     6.127
    54   7 N        2.636    -0.379    29.794     8.107
    55   1 H        0.860     0.164     1.308     1.792
    56   6 C        3.785     0.038    19.945     6.361
    57   1 H        0.925     0.093     1.846     2.124
    58   6 C        3.809    -0.071    21.860     6.655
    59   1 H        0.924     0.055     2.260     2.351
    60   1 H        0.925     0.061     2.184     2.311
    61   6 C        3.801    -0.080    22.027     6.682
    62   1 H        0.925     0.062     2.172     2.305
    63   1 H        0.925     0.059     2.211     2.325
    64   6 C        3.739    -0.023    21.058     6.548
    65   1 H        0.924     0.078     2.003     2.214
    66   1 H        0.925     0.083     1.951     2.184
    67   7 N        2.700    -0.153    24.318     7.324
    68   1 H        0.860     0.231     0.960     1.535
    69   6 C        2.735     0.240    22.989     7.850
    70   7 N        2.646    -0.270    26.982     7.715
    71   1 H        0.860     0.243     0.910     1.494
    72   1 H        0.861     0.253     0.871     1.462
    73   7 N        2.664    -0.277    27.154     7.739
    74   1 H        0.860     0.238     0.931     1.512
    75   1 H        0.860     0.235     0.944     1.522
    76   6 C        2.758     0.200    23.738     7.979
    77   8 O        0.856    -0.401    21.693     6.245
    78   7 N        2.633    -0.378    29.773     8.104
    79   1 H        0.860     0.171     1.265     1.762
    80   6 C        3.793     0.028    20.111     6.386
    81   1 H        0.925     0.068     2.112     2.272
    82   6 C        3.811    -0.061    21.656     6.624
    83   1 H        0.924     0.049     2.336     2.390
    84   1 H        0.924     0.046     2.368     2.406
    85   6 C        3.804    -0.102    22.438     6.744
    86   1 H        0.925     0.085     1.929     2.172
    87   1 H        0.925     0.074     2.047     2.237
    88   6 C        2.747     0.287    22.138     7.704
    89   8 O        0.863    -0.543    24.760     6.672
    90   7 N        2.640    -0.301    27.754     7.824
    91   1 H        0.860     0.238     0.929     1.510
    92   1 H        0.860     0.257     0.858     1.451
    93   6 C        2.756     0.269    22.463     7.761
    94   8 O        0.859    -0.513    24.083     6.580
    95   7 N        2.694    -0.176    24.821     7.399
    96   1 H        0.860     0.215     1.032     1.591
    97   6 C        3.801     0.024    20.164     6.393
    98   1 H        0.925     0.094     1.844     2.124
    99   6 C        3.804    -0.057    21.593     6.616
   100   1 H        0.924     0.063     2.167     2.302
   101   1 H        0.925     0.050     2.325     2.385
   102   6 C        3.801    -0.088    22.172     6.704
   103   1 H        0.924     0.022     2.708     2.573
   104   1 H        0.924     0.033     2.538     2.491
   105   6 C        2.687     0.363    20.850     7.473
   106   8 O        0.858    -0.662    27.689     7.055
   107   8 O        0.857    -0.669    27.869     7.078
   108   6 C        2.749     0.277    22.317     7.735
   109   8 O        0.860    -0.519    24.205     6.596
   110   7 N        2.692    -0.158    24.419     7.339
   111   1 H        0.860     0.192     1.148     1.679
   112   6 C        3.797     0.017    20.293     6.414
   113   1 H        0.925     0.084     1.942     2.179
   114   6 C        3.856    -0.013    20.779     6.483
   115   1 H        0.925     0.057     2.238     2.340
   116   6 C        3.753    -0.115    22.762     6.803
   117   1 H        0.925     0.063     2.161     2.299
   118   1 H        0.925     0.042     2.427     2.436
   119   1 H        0.924     0.035     2.519     2.482
   120   6 C        3.753    -0.114    22.737     6.800
   121   1 H        0.924     0.037     2.489     2.467
   122   1 H        0.924     0.041     2.442     2.444
   123   1 H        0.925     0.055     2.253     2.347
   124   6 C        2.756     0.274    22.362     7.744
   125   8 O        0.859    -0.510    24.002     6.569
   126   7 N        2.692    -0.154    24.332     7.326
   127   1 H        0.860     0.217     1.022     1.583
   128   6 C        3.795     0.034    20.001     6.368
   129   1 H        0.925     0.089     1.884     2.147
   130   6 C        3.854    -0.017    20.837     6.492
   131   1 H        0.925     0.068     2.103     2.268
   132   6 C        3.755    -0.122    22.893     6.822
   133   1 H        0.925     0.044     2.394     2.420
   134   1 H        0.924     0.037     2.486     2.466
   135   1 H        0.925     0.071     2.077     2.254
   136   6 C        3.804    -0.064    21.731     6.637
   137   1 H        0.925     0.034     2.530     2.487
   138   1 H        0.925     0.035     2.520     2.482
   139   6 C        3.749    -0.118    22.818     6.813
   140   1 H        0.925     0.049     2.335     2.389
   141   1 H        0.924     0.050     2.320     2.382
   142   1 H        0.925     0.053     2.280     2.361
   143   6 C        2.757     0.211    23.539     7.945
   144   8 O        0.856    -0.390    21.487     6.215
   145   7 N        2.637    -0.376    29.712     8.096
   146   1 H        0.860     0.164     1.310     1.793
   147   6 C        3.785     0.044    19.856     6.347
   148   1 H        0.925     0.080     1.977     2.199
   149   6 C        3.819    -0.069    21.799     6.645
   150   1 H        0.925     0.071     2.072     2.251
   151   1 H        0.924     0.055     2.257     2.350
   152   6 C        2.958     0.011    27.779     8.645
   153   6 C        2.917    -0.042    29.042     8.837
   154   1 H        0.925     0.044     2.400     2.423
   155   6 C        2.906    -0.070    29.741     8.942
   156   1 H        0.926     0.049     2.328     2.386
   157   6 C        2.835     0.135    25.048     8.201
   158   8 O        1.661    -0.476    22.383     6.387
   159   1 H        0.805     0.359     0.567     1.183
   160   6 C        2.910    -0.058    29.448     8.898
   161   1 H        0.925     0.041     2.433     2.439
   162   6 C        2.913    -0.044    29.085     8.843
   163   1 H        0.926     0.054     2.266     2.354
   164   6 C        2.762     0.194    23.855     7.998
   165   8 O        0.858    -0.399    21.662     6.240
   166   7 N        2.633    -0.363    29.370     8.049
   167   1 H        0.861     0.175     1.243     1.747
   168   6 C        3.785     0.048    19.789     6.336
   169   1 H        0.925     0.043     2.412     2.429
   170   6 C        3.806    -0.069    21.822     6.650
   171   1 H        0.923     0.050     2.320     2.382
   172   1 H        0.925     0.074     2.042     2.235
   173   6 C        3.022     0.047    26.931     8.512
   174   7 N        1.955    -0.328    29.331     8.031
   175   6 C        3.032     0.077    26.240     8.402
   176   1 H        0.926     0.053     2.282     2.362
   177   7 N        2.764    -0.109    23.379     7.181
   178   1 H        0.861     0.231     0.962     1.537
   179   6 C        3.082    -0.024    28.510     8.753
   180   1 H        0.925     0.029     2.604     2.523
   181   6 C        2.757     0.203    23.674     7.968
   182   8 O        0.857    -0.364    20.972     6.140
   183   7 N        2.632    -0.374    29.650     8.087
   184   1 H        0.860     0.156     1.361     1.827
   185   6 C        3.788     0.031    20.066     6.380
   186   1 H        0.924     0.054     2.267     2.355
   187   6 C        3.862    -0.020    20.882     6.498
   188   1 H        0.924     0.049     2.335     2.390
   189   6 C        3.756    -0.107    22.594     6.778
   190   1 H        0.924     0.040     2.450     2.448
   191   1 H        0.924     0.039     2.459     2.452
   192   1 H        0.923     0.039     2.465     2.455
   193   6 C        3.808    -0.056    21.568     6.611
   194   1 H        0.924     0.028     2.613     2.528
   195   1 H        0.923     0.037     2.486     2.466
   196   6 C        3.755    -0.110    22.666     6.788
   197   1 H        0.923     0.042     2.418     2.432
   198   1 H        0.924     0.026     2.638     2.540
   199   1 H        0.925     0.046     2.372     2.408
   200   6 C        2.747     0.264    22.551     7.776
   201   8 O        0.862    -0.531    24.479     6.634
   202   7 N        2.692    -0.166    24.584     7.364
   203   1 H        0.860     0.218     1.017     1.580
   204   6 C        3.789     0.036    19.978     6.366
   205   1 H        0.924     0.068     2.104     2.268
   206   6 C        3.855    -0.021    20.908     6.503
   207   1 H        0.924     0.073     2.048     2.238
   208   6 C        3.750    -0.114    22.754     6.803
   209   1 H        0.925     0.049     2.336     2.390
   210   1 H        0.924     0.066     2.126     2.280
   211   1 H        0.924     0.031     2.579     2.511
   212   6 C        3.802    -0.051    21.491     6.600
   213   1 H        0.925     0.030     2.582     2.513
   214   1 H        0.924     0.036     2.498     2.472
   215   6 C        3.752    -0.108    22.624     6.783
   216   1 H        0.925     0.047     2.355     2.400
   217   1 H        0.925     0.027     2.625     2.534
   218   1 H        0.924     0.033     2.544     2.494
   219   6 C        2.761     0.203    23.682     7.969
   220   8 O        0.857    -0.365    20.991     6.143
   221   1 H        0.860     0.182     1.205     1.720
   222   1 H        0.923     0.056     2.242     2.342
   223   1 H        0.860     0.186     1.178     1.700
   224   1 H        0.923     0.067     2.124     2.279
   225   1 H        0.860     0.173     1.252     1.753
   226   1 H        0.923     0.063     2.167     2.302
   227   1 H        0.860     0.161     1.326     1.804
   228   1 H        0.923     0.075     2.036     2.231
   229   1 H        0.860     0.173     1.256     1.755
   230   1 H        0.923     0.070     2.083     2.257
   231   1 H        0.860     0.173     1.254     1.754
   232   1 H        0.923     0.060     2.196     2.318
   233   1 H        0.860     0.174     1.247     1.749
   234   1 H        0.923     0.071     2.071     2.251

 Mol. C6AA /au·bohr⁶  :     520809.456670
 Mol. C8AA /au·bohr⁸  :   11664540.082263
 Mol. α(0) /au        :       1092.489138


Wiberg/Mayer (AO) data.
largest (>0.10) Wiberg bond orders for each atom

 ---------------------------------------------------------------------------
     #   Z sym  total        # sym  WBO       # sym  WBO       # sym  WBO
 ---------------------------------------------------------------------------
     1   7 N    3.021 --     3 C    1.033     2 H    0.957   221 H    0.952
     2   1 H    0.974 --     1 N    0.957
     3   6 C    3.986 --     1 N    1.033    20 C    0.988     5 C    0.937
                             4 H    0.936
     4   1 H    0.993 --     3 C    0.936
     5   6 C    3.988 --     8 C    1.007     7 H    0.969     6 H    0.963
                             3 C    0.937
     6   1 H    0.994 --     5 C    0.963
     7   1 H    0.997 --     5 C    0.969
     8   6 C    3.987 --    18 C    1.407     9 C    1.406     5 C    1.007
     9   6 C    3.989 --    11 C    1.450     8 C    1.406    10 H    0.967
                            16 C    0.107
    10   1 H    0.999 --     9 C    0.967
    11   6 C    3.986 --     9 C    1.450    13 C    1.364    12 H    0.966
                            18 C    0.106
    12   1 H    0.999 --    11 C    0.966
    13   6 C    3.934 --    11 C    1.364    16 C    1.361    14 O    1.080
    14   8 O    2.086 --    13 C    1.080    15 H    0.826
    15   1 H    0.887 --    14 O    0.826
    16   6 C    3.984 --    18 C    1.452    13 C    1.361    17 H    0.969
                             9 C    0.107
    17   1 H    0.997 --    16 C    0.969
    18   6 C    3.987 --    16 C    1.452     8 C    1.407    19 H    0.966
                            11 C    0.106
    19   1 H    0.996 --    18 C    0.966
    20   6 C    3.888 --    21 O    1.880     3 C    0.988   222 H    0.938
    21   8 O    2.042 --    20 C    1.880
    22   7 N    3.033 --    24 C    1.029    23 H    0.959   223 H    0.952
    23   1 H    0.975 --    22 N    0.959
    24   6 C    3.983 --    22 N    1.029    25 H    0.960    26 C    0.954
                            40 C    0.937
    25   1 H    0.995 --    24 C    0.960
    26   6 C    3.984 --    29 C    1.012    27 H    0.961    28 H    0.958
                            24 C    0.954
    27   1 H    0.996 --    26 C    0.961
    28   1 H    0.998 --    26 C    0.958
    29   6 C    3.988 --    38 C    1.409    30 C    1.408    26 C    1.012
                            34 C    0.108
    30   6 C    3.990 --    32 C    1.444    29 C    1.408    31 H    0.969
                            36 C    0.111
    31   1 H    0.998 --    30 C    0.969
    32   6 C    3.987 --    30 C    1.444    34 C    1.435    33 H    0.969
                            38 C    0.111
    33   1 H    0.998 --    32 C    0.969
    34   6 C    3.987 --    36 C    1.437    32 C    1.435    35 H    0.971
                            29 C    0.108
    35   1 H    0.998 --    34 C    0.971
    36   6 C    3.991 --    38 C    1.440    34 C    1.437    37 H    0.972
                            30 C    0.111
    37   1 H    0.999 --    36 C    0.972
    38   6 C    3.991 --    36 C    1.440    29 C    1.409    39 H    0.967
                            32 C    0.111
    39   1 H    1.000 --    38 C    0.967
    40   6 C    3.934 --    41 O    1.608    42 N    1.309    24 C    0.937
    41   8 O    1.901 --    40 C    1.608    42 N    0.188
    42   7 N    3.475 --    40 C    1.309    44 C    0.980    43 H    0.921
                            41 O    0.188
    43   1 H    0.957 --    42 N    0.921
    44   6 C    3.968 --    52 C    0.987    42 N    0.980    46 C    0.946
                            45 H    0.945
    45   1 H    0.991 --    44 C    0.945
    46   6 C    3.986 --    47 H    0.974    48 H    0.950    44 C    0.946
                            49 C    0.945
    47   1 H    0.998 --    46 C    0.974
    48   1 H    0.995 --    46 C    0.950
    49   6 C    3.938 --    51 O    1.486    50 O    1.471    46 C    0.945
    50   8 O    1.865 --    49 C    1.471    51 O    0.209
    51   8 O    1.867 --    49 C    1.486    50 O    0.209
    52   6 C    3.873 --    53 O    1.888    44 C    0.987   224 H    0.936
    53   8 O    2.046 --    52 C    1.888
    54   7 N    3.009 --    56 C    1.026    55 H    0.958   225 H    0.956
    55   1 H    0.973 --    54 N    0.958
    56   6 C    3.984 --    54 N    1.026    76 C    0.984    58 C    0.970
                            57 H    0.921
    57   1 H    0.991 --    56 C    0.921
    58   6 C    3.988 --    61 C    1.006    56 C    0.970    60 H    0.969
                            59 H    0.968
    59   1 H    0.997 --    58 C    0.968
    60   1 H    0.996 --    58 C    0.969
    61   6 C    3.992 --    58 C    1.006    64 C    0.996    62 H    0.974
                            63 H    0.971
    62   1 H    0.996 --    61 C    0.974
    63   1 H    0.996 --    61 C    0.971
    64   6 C    3.957 --    61 C    0.996    67 N    0.985    66 H    0.966
                            65 H    0.964
    65   1 H    0.993 --    64 C    0.964
    66   1 H    0.993 --    64 C    0.966
    67   7 N    3.435 --    69 C    1.287    64 C    0.985    68 H    0.915
    68   1 H    0.946 --    67 N    0.915
    69   6 C    3.974 --    70 N    1.342    73 N    1.313    67 N    1.287
    70   7 N    3.392 --    69 C    1.342    71 H    0.914    72 H    0.853
                            73 N    0.108
    71   1 H    0.941 --    70 N    0.914
    72   1 H    0.936 --    70 N    0.853
    73   7 N    3.385 --    69 C    1.313    74 H    0.922    75 H    0.883
                            70 N    0.108
    74   1 H    0.943 --    73 N    0.922
    75   1 H    0.945 --    73 N    0.883
    76   6 C    3.874 --    77 O    1.876    56 C    0.984   226 H    0.936
    77   8 O    2.029 --    76 C    1.876
    78   7 N    3.028 --    80 C    1.014    79 H    0.960   227 H    0.958
    79   1 H    0.971 --    78 N    0.960
    80   6 C    3.983 --    78 N    1.014    82 C    0.985    93 C    0.943
                            81 H    0.939
    81   1 H    0.995 --    80 C    0.939
    82   6 C    3.991 --    85 C    0.992    80 C    0.985    84 H    0.973
                            83 H    0.970
    83   1 H    0.998 --    82 C    0.970
    84   1 H    0.997 --    82 C    0.973
    85   6 C    3.990 --    82 C    0.992    88 C    0.976    87 H    0.969
                            86 H    0.954
    86   1 H    0.993 --    85 C    0.954
    87   1 H    0.995 --    85 C    0.969
    88   6 C    3.939 --    89 O    1.616    90 N    1.322    85 C    0.976
    89   8 O    1.909 --    88 C    1.616    90 N    0.194
    90   7 N    3.388 --    88 C    1.322    91 H    0.922    92 H    0.911
                            89 O    0.194
    91   1 H    0.943 --    90 N    0.922
    92   1 H    0.934 --    90 N    0.911
    93   6 C    3.940 --    94 O    1.630    95 N    1.282    80 C    0.943
    94   8 O    1.938 --    93 C    1.630    95 N    0.192
    95   7 N    3.463 --    93 C    1.282    97 C    0.989    96 H    0.909
                            94 O    0.192
    96   1 H    0.954 --    95 N    0.909
    97   6 C    3.968 --    95 N    0.989    99 C    0.976   108 C    0.949
                            98 H    0.931
    98   1 H    0.991 --    97 C    0.931
    99   6 C    3.988 --   102 C    1.010    97 C    0.976   101 H    0.976
                           100 H    0.970
   100   1 H    0.995 --    99 C    0.970
   101   1 H    0.997 --    99 C    0.976
   102   6 C    3.993 --    99 C    1.010   103 H    0.968   104 H    0.962
                           105 C    0.942
   103   1 H    1.000 --   102 C    0.968
   104   1 H    0.999 --   102 C    0.962
   105   6 C    3.933 --   106 O    1.488   107 O    1.479   102 C    0.942
   106   8 O    1.770 --   105 C    1.488   107 O    0.212
   107   8 O    1.763 --   105 C    1.479   106 O    0.212
   108   6 C    3.950 --   109 O    1.608   110 N    1.310    97 C    0.949
   109   8 O    1.919 --   108 C    1.608   110 N    0.194
   110   7 N    3.483 --   108 C    1.310   112 C    0.979   111 H    0.920
                           109 O    0.194
   111   1 H    0.963 --   110 N    0.920
   112   6 C    3.961 --   110 N    0.979   114 C    0.952   113 H    0.947
                           124 C    0.944
   113   1 H    0.993 --   112 C    0.947
   114   6 C    3.989 --   120 C    1.011   116 C    1.006   115 H    0.961
                           112 C    0.952
   115   1 H    0.996 --   114 C    0.961
   116   6 C    3.991 --   114 C    1.006   119 H    0.987   118 H    0.983
                           117 H    0.982
   117   1 H    0.995 --   116 C    0.982
   118   1 H    0.998 --   116 C    0.983
   119   1 H    0.999 --   116 C    0.987
   120   6 C    3.988 --   114 C    1.011   121 H    0.984   122 H    0.982
                           123 H    0.980
   121   1 H    0.999 --   120 C    0.984
   122   1 H    0.998 --   120 C    0.982
   123   1 H    0.997 --   120 C    0.980
   124   6 C    3.950 --   125 O    1.623   126 N    1.308   112 C    0.944
   125   8 O    1.951 --   124 C    1.623   126 N    0.198
   126   7 N    3.478 --   124 C    1.308   128 C    0.975   127 H    0.914
                           125 O    0.198
   127   1 H    0.953 --   126 N    0.914
   128   6 C    3.960 --   143 C    0.988   126 N    0.975   130 C    0.948
                           129 H    0.937
   129   1 H    0.992 --   128 C    0.937
   130   6 C    3.979 --   132 C    1.007   136 C    0.991   131 H    0.960
                           128 C    0.948
   131   1 H    0.995 --   130 C    0.960
   132   6 C    3.986 --   130 C    1.007   133 H    0.982   134 H    0.979
                           135 H    0.975
   133   1 H    0.998 --   132 C    0.982
   134   1 H    0.999 --   132 C    0.979
   135   1 H    0.994 --   132 C    0.975
   136   6 C    3.992 --   139 C    1.016   130 C    0.991   137 H    0.976
                           138 H    0.975
   137   1 H    0.999 --   136 C    0.976
   138   1 H    0.999 --   136 C    0.975
   139   6 C    3.992 --   136 C    1.016   142 H    0.987   140 H    0.985
                           141 H    0.984
   140   1 H    0.998 --   139 C    0.985
   141   1 H    0.997 --   139 C    0.984
   142   1 H    0.997 --   139 C    0.987
   143   6 C    3.882 --   144 O    1.874   128 C    0.988   228 H    0.940
   144   8 O    2.024 --   143 C    1.874
   145   7 N    3.013 --   147 C    1.033   146 H    0.957   229 H    0.954
   146   1 H    0.973 --   145 N    0.957
   147   6 C    3.985 --   145 N    1.033   164 C    0.978   149 C    0.960
                           148 H    0.931
   148   1 H    0.993 --   147 C    0.931
   149   6 C    3.990 --   152 C    1.009   151 H    0.968   147 C    0.960
                           150 H    0.953
   150   1 H    0.994 --   149 C    0.953
   151   1 H    0.997 --   149 C    0.968
   152   6 C    3.987 --   162 C    1.422   153 C    1.391   149 C    1.009
                           157 C    0.100
   153   6 C    3.990 --   155 C    1.468   152 C    1.391   154 H    0.967
                           160 C    0.106
   154   1 H    0.998 --   153 C    0.967
   155   6 C    3.987 --   153 C    1.468   157 C    1.365   156 H    0.967
                           162 C    0.108
   156   1 H    0.997 --   155 C    0.967
   157   6 C    3.936 --   160 C    1.393   155 C    1.365   158 O    1.037
                           152 C    0.100
   158   8 O    2.001 --   157 C    1.037   159 H    0.844
   159   1 H    0.871 --   158 O    0.844
   160   6 C    3.986 --   162 C    1.433   157 C    1.393   161 H    0.963
                           153 C    0.106
   161   1 H    0.998 --   160 C    0.963
   162   6 C    3.988 --   160 C    1.433   152 C    1.422   163 H    0.961
                           155 C    0.108
   163   1 H    0.997 --   162 C    0.961
   164   6 C    3.869 --   165 O    1.878   147 C    0.978   230 H    0.936
   165   8 O    2.024 --   164 C    1.878
   166   7 N    3.005 --   168 C    1.023   231 H    0.954   167 H    0.937
   167   1 H    0.969 --   166 N    0.937
   168   6 C    3.988 --   166 N    1.023   181 C    0.988   169 H    0.955
                           170 C    0.935
   169   1 H    0.996 --   168 C    0.955
   170   6 C    3.988 --   173 C    1.012   171 H    0.966   172 H    0.964
                           168 C    0.935
   171   1 H    0.997 --   170 C    0.966
   172   1 H    0.994 --   170 C    0.964
   173   6 C    3.975 --   179 C    1.576   174 N    1.261   170 C    1.012
   174   7 N    2.984 --   175 C    1.528   173 C    1.261   177 N    0.105
   175   6 C    3.959 --   174 N    1.528   177 N    1.296   176 H    0.964
                           179 C    0.116
   176   1 H    0.997 --   175 C    0.964
   177   7 N    3.585 --   175 C    1.296   179 C    1.194   178 H    0.918
                           174 N    0.105
   178   1 H    0.946 --   177 N    0.918
   179   6 C    3.935 --   173 C    1.576   177 N    1.194   180 H    0.966
                           175 C    0.116
   180   1 H    0.999 --   179 C    0.966
   181   6 C    3.884 --   182 O    1.892   168 C    0.988   232 H    0.940
   182   8 O    2.051 --   181 C    1.892
   183   7 N    3.025 --   185 C    1.022   233 H    0.953   184 H    0.952
   184   1 H    0.976 --   183 N    0.952
   185   6 C    3.981 --   183 N    1.022   187 C    0.966   186 H    0.947
                           200 C    0.936
   186   1 H    0.995 --   185 C    0.947
   187   6 C    3.992 --   189 C    1.007   193 C    0.994   185 C    0.966
                           188 H    0.963
   188   1 H    0.997 --   187 C    0.963
   189   6 C    3.994 --   187 C    1.007   190 H    0.985   192 H    0.982
                           191 H    0.973
   190   1 H    0.998 --   189 C    0.985
   191   1 H    0.998 --   189 C    0.973
   192   1 H    0.998 --   189 C    0.982
   193   6 C    3.997 --   196 C    1.020   187 C    0.994   195 H    0.976
                           194 H    0.973
   194   1 H    0.999 --   193 C    0.973
   195   1 H    0.998 --   193 C    0.976
   196   6 C    3.992 --   193 C    1.020   197 H    0.985   198 H    0.985
                           199 H    0.982
   197   1 H    0.998 --   196 C    0.985
   198   1 H    0.999 --   196 C    0.985
   199   1 H    0.998 --   196 C    0.982
   200   6 C    3.937 --   201 O    1.608   202 N    1.300   185 C    0.936
   201   8 O    1.913 --   200 C    1.608   202 N    0.190
   202   7 N    3.474 --   200 C    1.300   204 C    0.974   203 H    0.907
                           201 O    0.190
   203   1 H    0.952 --   202 N    0.907
   204   6 C    3.963 --   219 C    0.975   202 N    0.974   205 H    0.958
                           206 C    0.942
   205   1 H    0.995 --   204 C    0.958
   206   6 C    3.980 --   208 C    1.007   212 C    0.998   207 H    0.951
                           204 C    0.942
   207   1 H    0.995 --   206 C    0.951
   208   6 C    3.989 --   206 C    1.007   209 H    0.983   211 H    0.982
                           210 H    0.976
   209   1 H    0.998 --   208 C    0.983
   210   1 H    0.995 --   208 C    0.976
   211   1 H    0.999 --   208 C    0.982
Note: The following floating-point exceptions are signalling: IEEE_UNDERFLOW_FLAG IEEE_DENORMAL
normal termination of xtb
   212   6 C    3.995 --   215 C    1.011   206 C    0.998   214 H    0.975
                           213 H    0.969
   213   1 H    0.999 --   212 C    0.969
   214   1 H    0.999 --   212 C    0.975
   215   6 C    3.993 --   212 C    1.011   218 H    0.987   217 H    0.982
                           216 H    0.978
   216   1 H    0.998 --   215 C    0.978
   217   1 H    0.998 --   215 C    0.982
   218   1 H    0.999 --   215 C    0.987
   219   6 C    3.874 --   220 O    1.886   204 C    0.975   234 H    0.938
   220   8 O    2.052 --   219 C    1.886
   221   1 H    0.967 --     1 N    0.952
   222   1 H    0.997 --    20 C    0.938
   223   1 H    0.965 --    22 N    0.952
   224   1 H    0.995 --    52 C    0.936
   225   1 H    0.970 --    54 N    0.956
   226   1 H    0.996 --    76 C    0.936
   227   1 H    0.974 --    78 N    0.958
   228   1 H    0.994 --   143 C    0.940
   229   1 H    0.970 --   145 N    0.954
   230   1 H    0.994 --   164 C    0.936
   231   1 H    0.970 --   166 N    0.954
   232   1 H    0.996 --   181 C    0.940
   233   1 H    0.969 --   183 N    0.953
   234   1 H    0.994 --   219 C    0.938
 ---------------------------------------------------------------------------

Topologies differ in total number of bonds
Writing topology from bond orders to xtbtopo.mol

molecular dipole:
                 x           y           z       tot (Debye)
 q only:      -65.916     -62.849     -86.879
   full:      -65.555     -62.943     -87.454     320.578
molecular quadrupole (traceless):
                xx          xy          yy          xz          yz          zz
 q only:     1473.401   -6211.042    2015.551   -8548.002   -8425.472   -3488.952
  q+dip:     1549.508   -6203.172    2067.194   -8550.638   -8466.715   -3616.702
   full:     1554.383   -6200.863    2067.913   -8552.486   -8467.379   -3622.296


           -------------------------------------------------
          | TOTAL ENERGY             -354.424265687697 Eh   |
          | GRADIENT NORM               0.317508831858 Eh/α |
          | HOMO-LUMO GAP               1.177641977183 eV   |
           -------------------------------------------------

------------------------------------------------------------------------
 * finished run on 2026/01/05 at 09:06:33.132     
------------------------------------------------------------------------
 total:
 * wall-time:     0 d,  0 h,  0 min,  1.912 sec
 *  cpu-time:     0 d,  0 h,  0 min, 27.512 sec
 * ratio c/w:    14.392 speedup
 SCF:
 * wall-time:     0 d,  0 h,  0 min,  1.801 sec
 *  cpu-time:     0 d,  0 h,  0 min, 25.954 sec
 * ratio c/w:    14.409 speedup

