      -----------------------------------------------------------      
     |                   =====================                   |     
     |                           x T B                           |     
     |                   =====================                   |     
     |                         S. Grimme                         |     
     |          Mulliken Center for Theoretical Chemistry        |     
     |                    University of Bonn                     |     
      -----------------------------------------------------------      

   * xtb version 6.7.1 (edcfbbe) compiled by 'conda@c0858423619e' on 2025-09-04

   xtb is free software: you can redistribute it and/or modify it under
   the terms of the GNU Lesser General Public License as published by
   the Free Software Foundation, either version 3 of the License, or
   (at your option) any later version.
   
   xtb is distributed in the hope that it will be useful,
   but WITHOUT ANY WARRANTY; without even the implied warranty of
   MERCHANTABILITY or FITNESS FOR A PARTICULAR PURPOSE.  See the
   GNU Lesser General Public License for more details.
   
   Cite this work as:
   * C. Bannwarth, E. Caldeweyher, S. Ehlert, A. Hansen, P. Pracht,
     J. Seibert, S. Spicher, S. Grimme, WIREs Comput. Mol. Sci., 2020, 11,
     e01493. DOI: 10.1002/wcms.1493
   
   for GFN2-xTB:
   * C. Bannwarth, S. Ehlert and S. Grimme., J. Chem. Theory Comput., 2019,
     15, 1652-1671. DOI: 10.1021/acs.jctc.8b01176
   for GFN1-xTB:
   * S. Grimme, C. Bannwarth, P. Shushkov, J. Chem. Theory Comput., 2017,
     13, 1989-2009. DOI: 10.1021/acs.jctc.7b00118
   for GFN0-xTB:
   * P. Pracht, E. Caldeweyher, S. Ehlert, S. Grimme, ChemRxiv, 2019, preprint.
     DOI: 10.26434/chemrxiv.8326202.v1
   for GFN-FF:
   * S. Spicher and S. Grimme, Angew. Chem. Int. Ed., 2020, 59, 15665-15673.
     DOI: 10.1002/anie.202004239
   
   for ALPB and GBSA implicit solvation:
   * S. Ehlert, M. Stahn, S. Spicher, S. Grimme, J. Chem. Theory Comput.,
     2021, 17, 4250-4261. DOI: 10.1021/acs.jctc.1c00471
   
   for ddCOSMO and CPCM-X implicit solvation:
   * M. Stahn, S. Ehlert, S. Grimme, J. Phys. Chem. A,
     2023, XX, XXXX-XXXX. DOI: 10.1021/acs.jpca.3c04382
   
   for DFT-D4:
   * E. Caldeweyher, C. Bannwarth and S. Grimme, J. Chem. Phys., 2017,
     147, 034112. DOI: 10.1063/1.4993215
   * E. Caldeweyher, S. Ehlert, A. Hansen, H. Neugebauer, S. Spicher,
     C. Bannwarth and S. Grimme, J. Chem. Phys., 2019, 150, 154122.
     DOI: 10.1063/1.5090222
   * E. Caldeweyher, J.-M. Mewes, S. Ehlert and S. Grimme, Phys. Chem. Chem. Phys.
     2020, 22, 8499-8512. DOI: 10.1039/D0CP00502A
   
   for sTDA-xTB:
   * S. Grimme and C. Bannwarth, J. Chem. Phys., 2016, 145, 054103.
     DOI: 10.1063/1.4959605
   
   in the mass-spec context:
   * V. Asgeirsson, C. Bauer and S. Grimme, Chem. Sci., 2017, 8, 4879.
     DOI: 10.1039/c7sc00601b
   * J. Koopman and S. Grimme, ACS Omega 2019, 4, 12, 15120-15133.
     DOI: 10.1021/acsomega.9b02011
   
   for metadynamics refer to:
   * S. Grimme, J. Chem. Theory Comput., 2019, 155, 2847-2862
     DOI: 10.1021/acs.jctc.9b00143
   
   for SPH calculations refer to:
   * S. Spicher and S. Grimme, J. Chem. Theory Comput., 2021, 17, 1701-1714
     DOI: 10.1021/acs.jctc.0c01306
   
   for ONIOM refer to:
   * C. Plett, A. Katbashev, S. Ehlert, S. Grimme, M. Bursch,
     Phys. Chem. Chem. Phys., 2023, 25, 17860-17868. DOI: 10.1039/D3CP02178E
   
   for DIPRO refer to:
   * J. Kohn, N. Gildemeister, S. Grimme, D. Fazzi, A. Hansen,
     J. Chem. Phys., 2023, just accepted.
   
   for PTB refer to:
   * S. Grimme, M. Mueller, A. Hansen, J. Chem. Phys., 2023, 158, 124111.
     DOI: 10.1063/5.0137838
   
   with help from (in alphabetical order)
   P. Atkinson, C. Bannwarth, F. Bohle, G. Brandenburg, E. Caldeweyher
   M. Checinski, S. Dohm, S. Ehlert, S. Ehrlich, I. Gerasimov, C. Hölzer
   A. Katbashev, J. Kohn, J. Koopman, C. Lavigne, S. Lehtola, F. März, M. Müller,
   F. Musil, H. Neugebauer, J. Pisarek, C. Plett, P. Pracht, F. Pultar,
   J. Seibert, P. Shushkov, S. Spicher, M. Stahn, M. Steiner, T. Strunk,
   J. Stückrath, T. Rose, and J. Unsleber
   
 * started run on 2026/01/05 at 09:07:01.759     
   ID    Z sym.   atoms
    1    6 C      1, 3-11, 14-16, 18, 20, 21, 24-29, 32, 62, 64, 67, 68, 70,
                  72, 74, 76, 78, 82, 84, 87, 90, 94, 96, 99, 102, 107, 111,
                  113, 116, 119, 122, 126, 128, 130, 134, 138, 142, 144, 146,
                  150, 153, 157, 161, 163, 166, 167, 169, 171, 174, 176, 178,
                  182, 184, 187, 189, 193, 195, 199, 201, 203, 207, 210, 214,
                  218, 220, 222, 226, 229, 233
    2    7 N      2, 22, 60, 80, 92, 104, 109, 124, 140, 159, 180, 188, 191,
                  197, 216
    3    8 O      12, 13, 17, 30, 31, 79, 88, 89, 91, 103, 108, 120, 121,
                  123, 139, 158, 172, 179, 196, 215, 234
    4   16 S      19, 23
    5    1 H      33-59, 61, 63, 65, 66, 69, 71, 73, 75, 77, 81, 83, 85, 86,
                  93, 95, 97, 98, 100, 101, 105, 106, 110, 112, 114, 115,
                  117, 118, 125, 127, 129, 131-133, 135-137, 141, 143, 145,
                  147-149, 151, 152, 154-156, 160, 162, 164, 165, 168, 170,
                  173, 175, 177, 181, 183, 185, 186, 190, 192, 194, 198, 200,
                  202, 204-206, 208, 209, 211-213, 217, 219, 221, 223-225,
                  227, 228, 230-232, 235-244

           -------------------------------------------------
          |                Calculation Setup                |
           -------------------------------------------------

          program call               : xtb /home/antonio_mesquita/Documentos/gmx_ISA_project/testes_arquivos_primeiros/gmx_ISA_testes/testes_qm_xtb/QM_analysis/QM_FRAMES_CAPPED/frame_2800ps/complex_capped_2800ps.xyz --gfn 2 --alpb water --chrg -1 --etemp 1500 --cycles 1000
          coordinate file            : /home/antonio_mesquita/Documentos/gmx_ISA_project/testes_arquivos_primeiros/gmx_ISA_testes/testes_qm_xtb/QM_analysis/QM_FRAMES_CAPPED/frame_2800ps/complex_capped_2800ps.xyz
          omp threads                :                    16


molecular fragmentation (1/2 indicates fragments):
111111111111111111111111111111111111111111111111111111111112222222222222
222222222222222222222222222222222222222222222222222222222222222222222222
222222222222222222222222222222222222222222222222222222222222222222222222
2222222222222222222222222222
# atoms in fragment 1/2:    59   185
 fragment masses (1/2) :      475.60     1266.49
CMA distance (Bohr)    :   9.144
constraining FC (au)   :  0.0500

           -------------------------------------------------
          |                 G F N 2 - x T B                 |
           -------------------------------------------------

        Reference                      10.1021/acs.jctc.8b01176
      * Hamiltonian:
        H0-scaling (s, p, d)           1.850000    2.230000    2.230000
        zeta-weighting                 0.500000
      * Dispersion:
        s8                             2.700000
        a1                             0.520000
        a2                             5.000000
        s9                             5.000000
      * Repulsion:
        kExp                           1.500000    1.000000
        rExp                           1.000000
      * Coulomb:
        alpha                          2.000000
        third order                    shell-resolved
        anisotropic                    true
        a3                             3.000000
        a5                             4.000000
        cn-shift                       1.200000
        cn-exp                         4.000000
        max-rad                        5.000000

      * Solvation model:               ALPB
        Solvent                        water
        Parameter file                 internal GFN2-xTB/ALPB
        Dielectric constant                8.0200E+01
        Reference state                gsolv [1 M gas/solution]
        Free energy shift                  1.0808E-03 Eh       6.7819E-01 kcal/mol
        Temperature                        2.9815E+02 K
        Density                            1.0000E+00 kg/L
        Solvent mass                       1.8000E+01 g/mol
        Interaction kernel             P16
        Born radius scaling (c1)           1.4744E+00
        Born radii integrator          GBOBC
        Born offset                        0.0000E+00 a0       0.0000E+00 AA
        H-bond correction              true
        Ion screening                  false
        Surface tension                    1.0000E-05 Eh       1.5569E+01 dyn/cm
        Grid points                               230 per atom

          ...................................................
          :                      SETUP                      :
          :.................................................:
          :  # basis functions                 622          :
          :  # atomic orbitals                 620          :
          :  # shells                          368          :
          :  # electrons                       672          :
          :  max. iterations                   250          :
          :  Hamiltonian                  GFN2-xTB          :
          :  restarted?                      false          :
          :  GBSA solvation                   true          :
          :  PC potential                    false          :
          :  electronic temp.         1500.0000000     K    :
          :  accuracy                    1.0000000          :
          :  -> integral cutoff          0.2500000E+02      :
          :  -> integral neglect         0.1000000E-07      :
          :  -> SCF convergence          0.1000000E-05 Eh   :
          :  -> wf. convergence          0.1000000E-03 e    :
          :  Broyden damping             0.4000000          :
          :  net charge                         -1          :
          :  unpaired electrons                  0          :
          ...................................................

 iter      E             dE          RMSdq      gap      omega  full diag
   1   -381.5203057 -0.381520E+03  0.460E+00    0.10       0.0  T
   2   -382.2888166 -0.768511E+00  0.267E+00    1.46       1.0  T
   3   -382.1565791  0.132237E+00  0.184E+00    0.16       1.0  T
   4   -382.4539728 -0.297394E+00  0.102E+00    0.33       1.0  T
   5   -382.4914241 -0.374513E-01  0.705E-01    0.09       1.0  T
   6   -382.5662881 -0.748639E-01  0.406E-01    0.43       1.0  T
   7   -382.5694986 -0.321054E-02  0.348E-01    0.07       1.0  T
   8   -382.5824548 -0.129562E-01  0.252E-01    0.19       1.0  T
   9   -382.5931012 -0.106464E-01  0.149E-01    0.28       1.0  T
  10   -382.5962639 -0.316265E-02  0.854E-02    0.31       1.0  T
  11   -382.5928418  0.342208E-02  0.134E-01    0.18       1.0  T
  12   -382.5971048 -0.426298E-02  0.476E-02    0.31       1.0  T
  13   -382.5975763 -0.471589E-03  0.189E-02    0.30       1.0  T
  14   -382.5976183 -0.419245E-04  0.120E-02    0.30       1.0  T
  15   -382.5976367 -0.184670E-04  0.758E-03    0.29       1.0  T
  16   -382.5976485 -0.118110E-04  0.254E-03    0.30       2.5  T
  17   -382.5976497 -0.114518E-05  0.870E-04    0.30       7.4  T
  18   -382.5976497  0.156040E-07  0.784E-04    0.30       8.2  T
  19   -382.5976498 -0.122858E-06  0.311E-04    0.30      20.6  T

   *** convergence criteria satisfied after 19 iterations ***

         #    Occupation            Energy/Eh            Energy/eV
      -------------------------------------------------------------
         1        2.0000           -0.7911771             -21.5290
       ...           ...                  ...                  ...
       330        1.9748           -0.3727148             -10.1421
       331        1.9394           -0.3684607             -10.0263
       332        1.8952           -0.3657508              -9.9526
       333        1.8436           -0.3637161              -9.8972
       334        1.8260           -0.3631641              -9.8822
       335        1.8138           -0.3628110              -9.8726
       336        1.8023           -0.3624957              -9.8640 (HOMO)
       337        0.9570           -0.3515891              -9.5672 (LUMO)
       338        0.0000           -0.2959784              -8.0540
       339        0.0000           -0.2936225              -7.9899
       340        0.0000           -0.2930060              -7.9731
       341        0.0000           -0.2895152              -7.8781
       ...           ...                  ...                  ...
       620                          1.0714752              29.1563
      -------------------------------------------------------------
                  HL-Gap            0.0109066 Eh            0.2968 eV
             Fermi-level           -0.3519976 Eh           -9.5783 eV

 SCC (total)                   0 d,  0 h,  0 min,  2.981 sec
 SCC setup                      ...        0 min,  0.011 sec (  0.361%)
 Dispersion                     ...        0 min,  0.019 sec (  0.621%)
 classical contributions        ...        0 min,  0.005 sec (  0.177%)
 integral evaluation            ...        0 min,  0.062 sec (  2.071%)
 iterations                     ...        0 min,  2.651 sec ( 88.937%)
 molecular gradient             ...        0 min,  0.211 sec (  7.085%)
 printout                       ...        0 min,  0.022 sec (  0.746%)

         :::::::::::::::::::::::::::::::::::::::::::::::::::::
         ::                     SUMMARY                     ::
         :::::::::::::::::::::::::::::::::::::::::::::::::::::
         :: total energy            -377.997091269276 Eh    ::
         :: total w/o Gsasa/hb      -377.978297493652 Eh    ::
         :: gradient norm              0.277477217419 Eh/a0 ::
         :: HOMO-LUMO gap              0.296783533430 eV    ::
         ::.................................................::
         :: SCC energy              -382.578387508979 Eh    ::
         :: -> isotropic ES            1.154044148449 Eh    ::
         :: -> anisotropic ES         -0.007254007636 Eh    ::
         :: -> anisotropic XC          0.148738903926 Eh    ::
         :: -> dispersion             -0.297586762852 Eh    ::
         :: -> Gsolv                  -0.329605212971 Eh    ::
         ::    -> Gelec               -0.310811437347 Eh    ::
         ::    -> Gsasa                0.015978326412 Eh    ::
         ::    -> Ghb                 -0.035852861734 Eh    ::
         ::    -> Gshift               0.001080759698 Eh    ::
         :: repulsion energy           4.581296239703 Eh    ::
         :: add. restraining           0.000000000000 Eh    ::
         :: total charge              -0.999999999184 e     ::
         :::::::::::::::::::::::::::::::::::::::::::::::::::::

           -------------------------------------------------
          |                Property Printout                |
           -------------------------------------------------

    * Orbital Energies and Occupations

         #    Occupation            Energy/Eh            Energy/eV
      -------------------------------------------------------------
         1        2.0000           -0.7911771             -21.5290
       ...           ...                  ...                  ...
       324        1.9992           -0.3891249             -10.5886
       325        1.9955           -0.3809324             -10.3657
       326        1.9933           -0.3790678             -10.3150
       327        1.9916           -0.3779600             -10.2848
       328        1.9866           -0.3757354             -10.2243
       329        1.9838           -0.3748434             -10.2000
       330        1.9748           -0.3727148             -10.1421
       331        1.9394           -0.3684607             -10.0263
       332        1.8952           -0.3657508              -9.9526
       333        1.8436           -0.3637161              -9.8972
       334        1.8260           -0.3631641              -9.8822
       335        1.8138           -0.3628110              -9.8726
       336        1.8023           -0.3624957              -9.8640 (HOMO)
       337        0.9570           -0.3515891              -9.5672 (LUMO)
       338        0.0000           -0.2959784              -8.0540
       339        0.0000           -0.2936225              -7.9899
       340        0.0000           -0.2930060              -7.9731
       341        0.0000           -0.2895152              -7.8781
       342        0.0000           -0.2813881              -7.6570
       343                         -0.2650153              -7.2114
       344                         -0.2549524              -6.9376
       345                         -0.2513561              -6.8397
       346                         -0.2344528              -6.3798
       347                         -0.2286467              -6.2218
       ...                                ...                  ...
       620                          1.0714752              29.1563
      -------------------------------------------------------------
                  HL-Gap            0.0109066 Eh            0.2968 eV
             Fermi-level           -0.3519976 Eh           -9.5783 eV

     #   Z          covCN         q      C6AA      α(0)
     1   6 C        2.745     0.265    22.520     7.770
     2   7 N        2.702    -0.124    23.702     7.231
     3   6 C        2.869     0.041    27.084     8.531
     4   6 C        3.683     0.072    19.569     6.334
     5   6 C        3.808    -0.072    21.869     6.657
     6   6 C        2.967     0.010    27.799     8.648
     7   6 C        2.909    -0.044    29.085     8.843
     8   6 C        2.924    -0.037    28.909     8.817
     9   6 C        2.901    -0.039    28.960     8.824
    10   6 C        2.923    -0.022    28.555     8.763
    11   6 C        2.907    -0.030    28.740     8.790
    12   8 O        1.703    -0.285    18.734     5.844
    13   8 O        0.857    -0.484    23.440     6.491
    14   6 C        2.720     0.341    21.212     7.539
    15   6 C        3.745    -0.111    22.701     6.796
    16   6 C        3.902     0.013    20.303     6.405
    17   8 O        0.858    -0.443    22.559     6.368
    18   6 C        3.789    -0.033    21.177     6.554
    19  16 S        1.980    -0.194   149.290    20.565
    20   6 C        3.790    -0.038    21.272     6.568
    21   6 C        3.858     0.033    19.981     6.357
    22   7 N        2.729    -0.296    27.617     7.805
    23  16 S        3.853     1.162   102.117    17.008
    24   6 C        2.955    -0.087    30.178     9.010
    25   6 C        2.959    -0.028    28.705     8.788
    26   6 C        2.917    -0.026    28.663     8.779
    27   6 C        2.965     0.038    27.135     8.544
    28   6 C        2.911    -0.039    28.964     8.825
    29   6 C        2.941    -0.029    28.723     8.790
    30   8 O        0.859    -0.658    27.574     7.040
    31   8 O        0.859    -0.636    27.013     6.968
    32   6 C        3.755    -0.124    22.935     6.829
    33   1 H        0.861     0.243     0.913     1.496
    34   1 H        0.924     0.064     2.151     2.294
    35   1 H        0.923     0.085     1.928     2.172
    36   1 H        0.924     0.086     1.918     2.166
    37   1 H        0.925     0.111     1.692     2.034
    38   1 H        0.924     0.047     2.358     2.401
    39   1 H        0.926     0.049     2.330     2.387
    40   1 H        0.926     0.057     2.236     2.338
    41   1 H        0.925     0.018     2.767     2.601
    42   1 H        0.925     0.026     2.642     2.542
    43   1 H        0.923     0.055     2.261     2.352
    44   1 H        0.925     0.055     2.254     2.348
    45   1 H        0.923     0.038     2.481     2.463
    46   1 H        0.924     0.038     2.471     2.458
    47   1 H        0.923     0.063     2.162     2.300
    48   1 H        0.923     0.087     1.913     2.163
    49   1 H        0.925     0.096     1.818     2.108
    50   1 H        0.924     0.091     1.868     2.137
    51   1 H        0.924     0.080     1.981     2.201
    52   1 H        0.924     0.088     1.898     2.155
    53   1 H        0.925     0.064     2.155     2.296
    54   1 H        0.924     0.064     2.152     2.294
    55   1 H        0.924     0.089     1.889     2.149
    56   1 H        0.925     0.061     2.183     2.311
    57   1 H        0.924     0.091     1.869     2.138
    58   1 H        0.923     0.049     2.329     2.387
    59   1 H        0.925     0.068     2.105     2.269
    60   7 N        2.632    -0.336    28.656     7.950
    61   1 H        0.860     0.178     1.225     1.734
    62   6 C        3.786     0.028    20.124     6.390
    63   1 H        0.925     0.086     1.918     2.166
    64   6 C        3.813    -0.075    21.929     6.665
    65   1 H        0.925     0.078     1.995     2.209
    66   1 H        0.924     0.059     2.216     2.328
    67   6 C        2.957     0.008    27.848     8.656
    68   6 C        2.920    -0.043    29.070     8.842
    69   1 H        0.925     0.050     2.320     2.382
    70   6 C        2.908    -0.041    29.027     8.834
    71   1 H        0.926     0.047     2.354     2.399
    72   6 C        2.919    -0.040    29.001     8.831
    73   1 H        0.927     0.039     2.465     2.455
    74   6 C        2.900    -0.033    28.822     8.803
    75   1 H        0.926     0.029     2.595     2.519
    76   6 C        2.926    -0.036    28.892     8.815
    77   1 H        0.926     0.013     2.844     2.637
    78   6 C        2.746     0.274    22.366     7.744
    79   8 O        0.860    -0.515    24.114     6.584
    80   7 N        2.691    -0.160    24.472     7.347
    81   1 H        0.860     0.215     1.033     1.592
    82   6 C        3.787     0.038    19.943     6.361
    83   1 H        0.925     0.093     1.849     2.126
    84   6 C        3.807    -0.083    22.077     6.689
    85   1 H        0.925     0.045     2.387     2.416
    86   1 H        0.923     0.063     2.170     2.304
    87   6 C        2.687     0.365    20.807     7.465
    88   8 O        0.856    -0.649    27.350     7.012
    89   8 O        0.857    -0.640    27.131     6.983
    90   6 C        2.759     0.214    23.482     7.936
    91   8 O        0.856    -0.355    20.810     6.116
    92   7 N        2.631    -0.341    28.769     7.966
    93   1 H        0.861     0.189     1.162     1.689
    94   6 C        3.790     0.027    20.124     6.389
    95   1 H        0.925     0.081     1.966     2.193
    96   6 C        3.803    -0.058    21.614     6.619
    97   1 H        0.924     0.063     2.166     2.302
    98   1 H        0.925     0.053     2.278     2.360
    99   6 C        3.812    -0.101    22.415     6.739
   100   1 H        0.924     0.063     2.160     2.298
   101   1 H        0.924     0.076     2.022     2.224
   102   6 C        2.743     0.291    22.062     7.691
   103   8 O        0.858    -0.534    24.558     6.644
   104   7 N        2.639    -0.293    27.556     7.796
   105   1 H        0.861     0.240     0.922     1.504
   106   1 H        0.860     0.245     0.902     1.487
   107   6 C        2.750     0.268    22.469     7.762
   108   8 O        0.858    -0.511    24.028     6.572
   109   7 N        2.698    -0.183    24.969     7.421
   110   1 H        0.860     0.217     1.023     1.585
   111   6 C        3.795     0.031    20.058     6.377
   112   1 H        0.925     0.066     2.128     2.281
   113   6 C        3.810    -0.053    21.524     6.604
   114   1 H        0.924     0.048     2.341     2.393
   115   1 H        0.924     0.058     2.222     2.331
   116   6 C        3.803    -0.091    22.237     6.713
   117   1 H        0.925     0.053     2.287     2.365
   118   1 H        0.924     0.042     2.421     2.433
   119   6 C        2.687     0.368    20.759     7.456
   120   8 O        0.857    -0.638    27.082     6.977
   121   8 O        0.856    -0.646    27.285     7.003
   122   6 C        2.761     0.271    22.426     7.755
   123   8 O        0.858    -0.514    24.100     6.582
   124   7 N        2.690    -0.158    24.414     7.338
   125   1 H        0.860     0.212     1.045     1.602
   126   6 C        3.798     0.021    20.231     6.404
   127   1 H        0.925     0.081     1.970     2.195
   128   6 C        3.855    -0.018    20.864     6.496
   129   1 H        0.924     0.060     2.196     2.317
   130   6 C        3.756    -0.119    22.843     6.815
   131   1 H        0.925     0.034     2.524     2.485
   132   1 H        0.925     0.062     2.172     2.305
   133   1 H        0.925     0.041     2.432     2.439
   134   6 C        3.755    -0.122    22.900     6.823
   135   1 H        0.924     0.037     2.483     2.464
   136   1 H        0.923     0.045     2.383     2.414
   137   1 H        0.925     0.072     2.069     2.249
   138   6 C        2.752     0.267    22.495     7.766
   139   8 O        0.863    -0.519    24.204     6.596
   140   7 N        2.691    -0.163    24.529     7.356
   141   1 H        0.860     0.207     1.069     1.620
   142   6 C        3.811     0.027    20.108     6.383
   143   1 H        0.924     0.099     1.796     2.096
   144   6 C        3.861    -0.018    20.849     6.493
   145   1 H        0.925     0.071     2.078     2.254
   146   6 C        3.773    -0.125    22.937     6.824
   147   1 H        0.925     0.063     2.168     2.302
   148   1 H        0.925     0.043     2.414     2.430
   149   1 H        0.924     0.063     2.167     2.302
   150   6 C        3.801    -0.060    21.657     6.626
   151   1 H        0.924     0.043     2.410     2.428
   152   1 H        0.925     0.042     2.418     2.432
   153   6 C        3.750    -0.117    22.801     6.810
   154   1 H        0.924     0.047     2.357     2.401
   155   1 H        0.924     0.042     2.419     2.432
   156   1 H        0.925     0.050     2.325     2.384
   157   6 C        2.763     0.210    23.543     7.946
   158   8 O        0.856    -0.380    21.283     6.185
   159   7 N        2.633    -0.330    28.499     7.929
   160   1 H        0.861     0.202     1.094     1.638
   161   6 C        3.784     0.036    19.980     6.367
   162   1 H        0.925     0.094     1.838     2.120
   163   6 C        3.813    -0.072    21.873     6.657
   164   1 H        0.924     0.075     2.036     2.232
   165   1 H        0.924     0.064     2.151     2.294
   166   6 C        2.960     0.007    27.853     8.656
   167   6 C        2.920    -0.045    29.124     8.850
   168   1 H        0.925     0.044     2.392     2.419
   169   6 C        2.903    -0.071    29.759     8.945
   170   1 H        0.925     0.028     2.621     2.532
   171   6 C        2.839     0.139    24.961     8.188
   172   8 O        1.660    -0.441    21.664     6.283
   173   1 H        0.807     0.322     0.659     1.275
   174   6 C        2.910    -0.059    29.465     8.901
   175   1 H        0.926     0.055     2.264     2.353
   176   6 C        2.909    -0.047    29.155     8.854
   177   1 H        0.926     0.072     2.060     2.245
   178   6 C        2.759     0.202    23.711     7.974
   179   8 O        0.856    -0.381    21.298     6.187
   180   7 N        2.651    -0.310    27.989     7.857
   181   1 H        0.860     0.215     1.031     1.590
   182   6 C        3.785     0.042    19.878     6.351
   183   1 H        0.925     0.072     2.059     2.244
   184   6 C        3.806    -0.071    21.852     6.655
   185   1 H        0.925     0.070     2.087     2.259
   186   1 H        0.925     0.073     2.055     2.242
   187   6 C        3.057     0.043    26.977     8.518
   188   7 N        1.939    -0.323    29.213     8.014
   189   6 C        3.023     0.085    26.082     8.377
   190   1 H        0.925     0.047     2.364     2.404
   191   7 N        2.782    -0.106    23.309     7.170
   192   1 H        0.860     0.227     0.980     1.550
   193   6 C        3.035    -0.033    28.794     8.802
   194   1 H        0.925     0.059     2.213     2.326
   195   6 C        2.779     0.208    23.583     7.954
   196   8 O        0.856    -0.350    20.717     6.102
   197   7 N        2.632    -0.326    28.396     7.914
   198   1 H        0.860     0.187     1.175     1.698
   199   6 C        3.794     0.028    20.118     6.387
   200   1 H        0.925     0.073     2.053     2.241
   201   6 C        3.858    -0.021    20.917     6.504
   202   1 H        0.924     0.056     2.244     2.343
   203   6 C        3.758    -0.116    22.774     6.804
   204   1 H        0.924     0.030     2.592     2.518
   205   1 H        0.924     0.041     2.432     2.439
   206   1 H        0.925     0.059     2.209     2.324
   207   6 C        3.804    -0.057    21.599     6.616
   208   1 H        0.925     0.048     2.339     2.392
   209   1 H        0.925     0.029     2.608     2.525
   210   6 C        3.752    -0.114    22.737     6.800
   211   1 H        0.924     0.040     2.456     2.451
   212   1 H        0.925     0.039     2.460     2.453
   213   1 H        0.925     0.038     2.473     2.459
   214   6 C        2.753     0.275    22.356     7.742
   215   8 O        0.861    -0.517    24.159     6.590
   216   7 N        2.694    -0.163    24.527     7.355
   217   1 H        0.860     0.233     0.954     1.530
   218   6 C        3.797     0.022    20.204     6.400
   219   1 H        0.924     0.078     1.999     2.211
   220   6 C        3.855    -0.022    20.933     6.507
   221   1 H        0.924     0.056     2.245     2.343
   222   6 C        3.756    -0.129    23.028     6.842
   223   1 H        0.924     0.063     2.159     2.298
   224   1 H        0.925     0.063     2.163     2.300
   225   1 H        0.924     0.047     2.354     2.399
   226   6 C        3.804    -0.053    21.522     6.605
   227   1 H        0.924     0.027     2.624     2.533
   228   1 H        0.925     0.037     2.484     2.464
   229   6 C        3.750    -0.111    22.687     6.793
   230   1 H        0.925     0.033     2.540     2.492
   231   1 H        0.924     0.025     2.653     2.547
   232   1 H        0.924     0.049     2.333     2.388
   233   6 C        2.762     0.204    23.664     7.966
   234   8 O        0.857    -0.348    20.662     6.094
   235   1 H        0.860     0.213     1.040     1.598
   236   1 H        0.923     0.063     2.161     2.299
   237   1 H        0.860     0.169     1.277     1.770
   238   1 H        0.923     0.076     2.026     2.226
   239   1 H        0.860     0.206     1.076     1.625
   240   1 H        0.923     0.077     2.007     2.216
   241   1 H        0.860     0.189     1.161     1.688
   242   1 H        0.923     0.069     2.094     2.263
   243   1 H        0.860     0.205     1.083     1.630
   244   1 H        0.923     0.084     1.941     2.179

 Mol. C6AA /au·bohr⁶  :     611760.957801
 Mol. C8AA /au·bohr⁸  :   14234914.616117
 Mol. α(0) /au        :       1190.334900


Wiberg/Mayer (AO) data.
largest (>0.10) Wiberg bond orders for each atom

 ---------------------------------------------------------------------------
     #   Z sym  total        # sym  WBO       # sym  WBO       # sym  WBO
 ---------------------------------------------------------------------------
     1   6 C    3.883 --    17 O    1.679     2 N    1.172    21 C    0.947
     2   7 N    3.480 --     3 C    1.205     1 C    1.172    33 H    0.862
                            17 O    0.129
     3   6 C    3.500 --     2 N    1.205    14 C    1.089     5 C    1.035
     4   6 C    3.914 --    15 C    1.010    35 H    0.967    34 H    0.967
                            12 O    0.937
     5   6 C    3.969 --     3 C    1.035     6 C    0.971    36 H    0.954
                            37 H    0.927
     6   6 C    3.958 --    11 C    1.416     7 C    1.412     5 C    0.971
                             9 C    0.106
     7   6 C    3.985 --     8 C    1.441     6 C    1.412    38 H    0.965
                            10 C    0.113
     8   6 C    3.989 --     7 C    1.441     9 C    1.435    39 H    0.969
                            11 C    0.113
     9   6 C    3.986 --    10 C    1.441     8 C    1.435    40 H    0.967
                             6 C    0.106
    10   6 C    3.989 --     9 C    1.441    11 C    1.436    41 H    0.968
                             7 C    0.113
    11   6 C    3.987 --    10 C    1.436     6 C    1.416    42 H    0.968
                             8 C    0.113
    12   8 O    2.237 --    14 C    1.092     4 C    0.937    13 O    0.147
    13   8 O    1.877 --    14 C    1.606    12 O    0.147
    14   6 C    3.862 --    13 O    1.606    12 O    1.092     3 C    1.089
    15   6 C    3.988 --     4 C    1.010    44 H    0.988    43 H    0.983
                            45 H    0.983
    16   6 C    3.966 --    18 C    1.001    22 N    0.987    46 H    0.968
                            47 H    0.962
    17   8 O    1.928 --     1 C    1.679     2 N    0.129
    18   6 C    3.969 --    16 C    1.001    19 S    0.993    48 H    0.969
                            49 H    0.965
    19  16 S    2.124 --    18 C    0.993    20 C    0.991
    20   6 C    3.971 --    19 S    0.991    21 C    0.990    50 H    0.968
                            51 H    0.961
    21   6 C    3.971 --    20 C    0.990    22 N    0.982     1 C    0.947
                            52 H    0.926
    22   7 N    3.161 --    16 C    0.987    21 C    0.982    23 S    0.874
    23  16 S    4.800 --    31 O    1.547    30 O    1.546    22 N    0.874
                            24 C    0.726
    24   6 C    3.940 --    29 C    1.417    25 C    1.401    23 S    0.726
    25   6 C    3.984 --    26 C    1.447    24 C    1.401    53 H    0.965
                            28 C    0.108
    26   6 C    3.984 --    25 C    1.447    27 C    1.400    54 H    0.962
                            29 C    0.104
    27   6 C    3.979 --    28 C    1.402    26 C    1.400    32 C    1.029
    28   6 C    3.979 --    29 C    1.435    27 C    1.402    55 H    0.960
                            25 C    0.108
    29   6 C    3.983 --    28 C    1.435    24 C    1.417    56 H    0.963
                            26 C    0.104
    30   8 O    1.837 --    23 S    1.546
    31   8 O    1.846 --    23 S    1.547
    32   6 C    3.987 --    27 C    1.029    58 H    0.977    59 H    0.974
                            57 H    0.952
    33   1 H    0.939 --     2 N    0.862
    34   1 H    0.993 --     4 C    0.967
    35   1 H    0.992 --     4 C    0.967
    36   1 H    0.992 --     5 C    0.954
    37   1 H    0.961 --     5 C    0.927
    38   1 H    0.998 --     7 C    0.965
    39   1 H    0.997 --     8 C    0.969
    40   1 H    0.996 --     9 C    0.967
    41   1 H    0.999 --    10 C    0.968
    42   1 H    0.999 --    11 C    0.968
    43   1 H    0.996 --    15 C    0.983
    44   1 H    0.997 --    15 C    0.988
    45   1 H    0.999 --    15 C    0.983
    46   1 H    0.998 --    16 C    0.968
    47   1 H    0.996 --    16 C    0.962
    48   1 H    0.992 --    18 C    0.969
    49   1 H    0.990 --    18 C    0.965
    50   1 H    0.991 --    20 C    0.968
    51   1 H    0.993 --    20 C    0.961
    52   1 H    0.988 --    21 C    0.926
    53   1 H    0.996 --    25 C    0.965
    54   1 H    0.995 --    26 C    0.962
    55   1 H    0.991 --    28 C    0.960
    56   1 H    0.996 --    29 C    0.963
    57   1 H    0.991 --    32 C    0.952
    58   1 H    0.997 --    32 C    0.977
    59   1 H    0.995 --    32 C    0.974
    60   7 N    2.985 --    62 C    1.033    61 H    0.950   235 H    0.940
    61   1 H    0.968 --    60 N    0.950
    62   6 C    3.968 --    60 N    1.033    63 H    0.950    78 C    0.941
                            64 C    0.938
    63   1 H    0.991 --    62 C    0.950
    64   6 C    3.967 --    67 C    1.011    65 H    0.967    66 H    0.961
                            62 C    0.938
    65   1 H    0.993 --    64 C    0.967
    66   1 H    0.994 --    64 C    0.961
    67   6 C    3.985 --    76 C    1.413    68 C    1.407    64 C    1.011
                            72 C    0.106
    68   6 C    3.985 --    70 C    1.446    67 C    1.407    69 H    0.967
                            74 C    0.111
    69   1 H    0.997 --    68 C    0.967
    70   6 C    3.989 --    68 C    1.446    72 C    1.434    71 H    0.971
                            76 C    0.111
    71   1 H    0.997 --    70 C    0.971
    72   6 C    3.984 --    74 C    1.437    70 C    1.434    73 H    0.973
                            67 C    0.106
    73   1 H    0.998 --    72 C    0.973
    74   6 C    3.990 --    76 C    1.440    72 C    1.437    75 H    0.970
                            68 C    0.111
    75   1 H    0.999 --    74 C    0.970
    76   6 C    3.987 --    74 C    1.440    67 C    1.413    77 H    0.963
                            70 C    0.111
    77   1 H    1.000 --    76 C    0.963
    78   6 C    3.928 --    79 O    1.616    80 N    1.298    62 C    0.941
    79   8 O    1.919 --    78 C    1.616    80 N    0.192
    80   7 N    3.474 --    78 C    1.298    82 C    0.990    81 H    0.915
                            79 O    0.192
    81   1 H    0.954 --    80 N    0.915
    82   6 C    3.972 --    90 C    0.990    80 N    0.990    84 C    0.951
                            83 H    0.938
    83   1 H    0.991 --    82 C    0.938
    84   6 C    3.975 --    85 H    0.967    86 H    0.951    82 C    0.951
                            87 C    0.934
    85   1 H    0.998 --    84 C    0.967
    86   1 H    0.996 --    84 C    0.951
    87   6 C    3.934 --    89 O    1.492    88 O    1.484    84 C    0.934
    88   8 O    1.770 --    87 C    1.484    89 O    0.214
    89   8 O    1.778 --    87 C    1.492    88 O    0.214
    90   6 C    3.894 --    91 O    1.900    82 C    0.990   236 H    0.940
    91   8 O    2.059 --    90 C    1.900
    92   7 N    3.008 --    94 C    1.024   237 H    0.957    93 H    0.950
    93   1 H    0.964 --    92 N    0.950
    94   6 C    3.972 --    92 N    1.024    96 C    0.984   107 C    0.931
                            95 H    0.930
    95   1 H    0.993 --    94 C    0.930
    96   6 C    3.982 --    99 C    0.991    94 C    0.984    98 H    0.973
                            97 H    0.968
    97   1 H    0.995 --    96 C    0.968
    98   1 H    0.997 --    96 C    0.973
    99   6 C    3.992 --    96 C    0.991   102 C    0.974   100 H    0.968
                           101 H    0.959
   100   1 H    0.996 --    99 C    0.968
   101   1 H    0.993 --    99 C    0.959
   102   6 C    3.943 --   103 O    1.626   104 N    1.314    99 C    0.974
   103   8 O    1.914 --   102 C    1.626   104 N    0.195
   104   7 N    3.385 --   102 C    1.314   105 H    0.918   106 H    0.917
                           103 O    0.195
   105   1 H    0.942 --   104 N    0.918
   106   1 H    0.940 --   104 N    0.917
   107   6 C    3.928 --   108 O    1.631   109 N    1.280    94 C    0.931
   108   8 O    1.927 --   107 C    1.631   109 N    0.181
   109   7 N    3.438 --   107 C    1.280   111 C    0.981   110 H    0.909
                           108 O    0.181
   110   1 H    0.953 --   109 N    0.909
   111   6 C    3.966 --   109 N    0.981   113 C    0.977   112 H    0.954
                           122 C    0.935
   112   1 H    0.995 --   111 C    0.954
   113   6 C    3.989 --   116 C    1.000   111 C    0.977   114 H    0.972
                           115 H    0.970
   114   1 H    0.997 --   113 C    0.972
   115   1 H    0.997 --   113 C    0.970
   116   6 C    3.961 --   113 C    1.000   117 H    0.979   118 H    0.956
                           119 C    0.927
   117   1 H    0.997 --   116 C    0.979
   118   1 H    0.997 --   116 C    0.956
   119   6 C    3.925 --   121 O    1.487   120 O    1.485   116 C    0.927
   120   8 O    1.760 --   119 C    1.485   121 O    0.211
   121   8 O    1.763 --   119 C    1.487   120 O    0.211
   122   6 C    3.948 --   123 O    1.616   124 N    1.314   111 C    0.935
   123   8 O    1.928 --   122 C    1.616   124 N    0.195
   124   7 N    3.478 --   122 C    1.314   126 C    0.978   125 H    0.911
                           123 O    0.195
   125   1 H    0.955 --   124 N    0.911
   126   6 C    3.959 --   124 N    0.978   128 C    0.964   138 C    0.949
                           127 H    0.935
   127   1 H    0.993 --   126 C    0.935
   128   6 C    3.989 --   134 C    1.007   130 C    1.004   126 C    0.964
                           129 H    0.962
   129   1 H    0.996 --   128 C    0.962
   130   6 C    3.992 --   128 C    1.004   131 H    0.986   132 H    0.985
                           133 H    0.985
   131   1 H    0.999 --   130 C    0.986
   132   1 H    0.996 --   130 C    0.985
   133   1 H    0.998 --   130 C    0.985
   134   6 C    3.990 --   128 C    1.007   136 H    0.984   137 H    0.982
                           135 H    0.979
   135   1 H    0.999 --   134 C    0.979
   136   1 H    0.998 --   134 C    0.984
   137   1 H    0.995 --   134 C    0.982
   138   6 C    3.952 --   139 O    1.607   140 N    1.312   126 C    0.949
   139   8 O    1.919 --   138 C    1.607   140 N    0.194
   140   7 N    3.473 --   138 C    1.312   142 C    0.971   141 H    0.918
                           139 O    0.194
   141   1 H    0.957 --   140 N    0.918
   142   6 C    3.958 --   157 C    0.990   140 N    0.971   143 H    0.938
                           144 C    0.937
   143   1 H    0.990 --   142 C    0.938
   144   6 C    3.980 --   146 C    0.999   150 C    0.999   145 H    0.956
                           142 C    0.937
   145   1 H    0.994 --   144 C    0.956
   146   6 C    3.988 --   144 C    0.999   148 H    0.983   147 H    0.981
                           149 H    0.979
   147   1 H    0.996 --   146 C    0.981
   148   1 H    0.998 --   146 C    0.983
   149   1 H    0.994 --   146 C    0.979
   150   6 C    3.994 --   153 C    1.015   144 C    0.999   151 H    0.973
                           152 H    0.971
   151   1 H    0.998 --   150 C    0.973
   152   1 H    0.998 --   150 C    0.971
   153   6 C    3.992 --   150 C    1.015   156 H    0.987   154 H    0.986
                           155 H    0.985
   154   1 H    0.998 --   153 C    0.986
   155   1 H    0.998 --   153 C    0.985
   156   1 H    0.998 --   153 C    0.987
   157   6 C    3.891 --   158 O    1.884   142 C    0.990   238 H    0.934
   158   8 O    2.044 --   157 C    1.884
   159   7 N    2.980 --   161 C    1.038   239 H    0.943   160 H    0.943
   160   1 H    0.959 --   159 N    0.943
   161   6 C    3.973 --   159 N    1.038   178 C    0.975   163 C    0.953
                           162 H    0.919
   162   1 H    0.986 --   161 C    0.919
   163   6 C    3.979 --   166 C    1.009   165 H    0.968   164 H    0.956
                           161 C    0.953
   164   1 H    0.991 --   163 C    0.956
   165   1 H    0.995 --   163 C    0.968
   166   6 C    3.978 --   176 C    1.410   167 C    1.399   163 C    1.009
   167   6 C    3.984 --   169 C    1.457   166 C    1.399   168 H    0.969
                           174 C    0.106
   168   1 H    0.998 --   167 C    0.969
   169   6 C    3.984 --   167 C    1.457   171 C    1.362   170 H    0.967
                           176 C    0.108
   170   1 H    0.999 --   169 C    0.967
   171   6 C    3.917 --   174 C    1.373   169 C    1.362   172 O    1.054
   172   8 O    2.074 --   171 C    1.054   173 H    0.864
   173   1 H    0.896 --   172 O    0.864
   174   6 C    3.977 --   176 C    1.437   171 C    1.373   175 H    0.967
                           167 C    0.106
   175   1 H    0.997 --   174 C    0.967
   176   6 C    3.982 --   174 C    1.437   166 C    1.410   177 H    0.965
                           169 C    0.108
   177   1 H    0.995 --   176 C    0.965
   178   6 C    3.861 --   179 O    1.886   161 C    0.975   240 H    0.931
   179   8 O    2.037 --   178 C    1.886
   180   7 N    2.980 --   182 C    1.022   241 H    0.948   181 H    0.907
   181   1 H    0.953 --   180 N    0.907
   182   6 C    3.973 --   180 N    1.022   195 C    0.985   183 H    0.954
                           184 C    0.928
   183   1 H    0.987 --   182 C    0.954
   184   6 C    3.965 --   187 C    1.014   185 H    0.961   186 H    0.957
                           182 C    0.928
   185   1 H    0.994 --   184 C    0.961
   186   1 H    0.994 --   184 C    0.957
   187   6 C    3.964 --   193 C    1.563   188 N    1.256   184 C    1.014
   188   7 N    2.992 --   189 C    1.539   187 C    1.256   191 N    0.106
   189   6 C    3.954 --   188 N    1.539   191 N    1.285   190 H    0.964
                           193 C    0.111
   190   1 H    0.997 --   189 C    0.964
   191   7 N    3.584 --   189 C    1.285   193 C    1.199   192 H    0.920
                           188 N    0.106
   192   1 H    0.948 --   191 N    0.920
   193   6 C    3.919 --   187 C    1.563   191 N    1.199   194 H    0.962
                           189 C    0.111
   194   1 H    0.996 --   193 C    0.962
   195   6 C    3.879 --   196 O    1.887   182 C    0.985   242 H    0.938
   196   8 O    2.074 --   195 C    1.887
   197   7 N    2.965 --   199 C    1.025   243 H    0.943   198 H    0.942
   198   1 H    0.965 --   197 N    0.942
   199   6 C    3.964 --   197 N    1.025   214 C    0.952   201 C    0.944
                           200 H    0.937
   200   1 H    0.979 --   199 C    0.937
   201   6 C    3.967 --   203 C    1.006   207 C    0.994   202 H    0.962
                           199 C    0.944
   202   1 H    0.995 --   201 C    0.962
   203   6 C    3.988 --   201 C    1.006   205 H    0.982   204 H    0.980
                           206 H    0.980
   204   1 H    0.999 --   203 C    0.980
   205   1 H    0.997 --   203 C    0.982
   206   1 H    0.996 --   203 C    0.980
   207   6 C    3.993 --   210 C    1.018   201 C    0.994   208 H    0.973
                           209 H    0.972
   208   1 H    0.997 --   207 C    0.973
   209   1 H    0.999 --   207 C    0.972
   210   6 C    3.991 --   207 C    1.018   211 H    0.986   213 H    0.985
                           212 H    0.983
   211   1 H    0.998 --   210 C    0.986
   212   1 H    0.998 --   210 C    0.983
   213   1 H    0.998 --   210 C    0.985
   214   6 C    3.944 --   215 O    1.608   216 N    1.306   199 C    0.952
   215   8 O    1.916 --   214 C    1.608   216 N    0.187
   216   7 N    3.475 --   214 C    1.306   218 C    0.968   217 H    0.888
                           215 O    0.187
   217   1 H    0.946 --   216 N    0.888
   218   6 C    3.960 --   233 C    0.969   216 N    0.968   219 H    0.959
                           220 C    0.955
   219   1 H    0.993 --   218 C    0.959
   220   6 C    3.987 --   222 C    1.005   226 C    0.998   218 C    0.955
                           221 H    0.954
   221   1 H    0.997 --   220 C    0.954
   222   6 C    3.986 --   220 C    1.005   223 H    0.982   225 H    0.979
                           224 H    0.976
   223   1 H    0.996 --   222 C    0.982
   224   1 H    0.995 --   222 C    0.976
   225   1 H    0.998 --   222 C    0.979
   226   6 C    3.995 --   229 C    1.012   220 C    0.998   228 H    0.976
                           227 H    0.972
   227   1 H    0.999 --   226 C    0.972
   228   1 H    0.998 --   226 C    0.976
   229   6 C    3.991 --   226 C    1.012   231 H    0.984   230 H    0.983
                           232 H    0.980
   230   1 H    0.998 --   229 C    0.983
   231   1 H    0.999 --   229 C    0.984
   232   1 H    0.997 --   229 C    0.980
   233   6 C    3.880 --   234 O    1.901   218 C    0.969   244 H    0.936
   234   8 O    2.078 --   233 C    1.901
   235   1 H    0.954 --    60 N    0.940
   236   1 H    0.995 --    90 C    0.940
   237   1 H    0.971 --    92 N    0.957
   238   1 H    0.994 --   157 C    0.934
   239   1 H    0.957 --   159 N    0.943
   240   1 H    0.988 --   178 C    0.931
   241   1 H    0.964 --   180 N    0.948
   242   1 H    0.992 --   195 C    0.938
   243   1 H    0.958 --   197 N    0.943
   244   1 H    0.992 --   233 C    0.936
 ---------------------------------------------------------------------------

Topologies differ in total number of bonds
Writing topology from bond orders to xtbtopo.mol

molecular dipole:
                 x           y           z       tot (Debye)
 q only:      -28.313     -25.571    -118.966
   full:      -28.795     -25.419    -117.932     315.251
molecular quadrupole (traceless):
                xx          xy          yy          xz          yz          zz
 q only:     6315.085   -1186.605    6787.291   -5585.095   -4345.183  -13102.377
  q+dip:     6150.227   -1181.998    6737.511   -5585.718   -4310.822  -12887.737
   full:     6153.628   -1182.910    6737.915   -5586.624   -4306.477  -12891.542


           -------------------------------------------------
          | TOTAL ENERGY             -377.997091269276 Eh   |
          | GRADIENT NORM               0.277477217419 Eh/α |
          | HOMO-LUMO GAP               0.296783533430 eV   |
           -------------------------------------------------
Note: The following floating-point exceptions are signalling: IEEE_UNDERFLOW_FLAG IEEE_DENORMAL
normal termination of xtb

------------------------------------------------------------------------
 * finished run on 2026/01/05 at 09:07:04.861     
------------------------------------------------------------------------
 total:
 * wall-time:     0 d,  0 h,  0 min,  3.101 sec
 *  cpu-time:     0 d,  0 h,  0 min, 45.281 sec
 * ratio c/w:    14.600 speedup
 SCF:
 * wall-time:     0 d,  0 h,  0 min,  2.984 sec
 *  cpu-time:     0 d,  0 h,  0 min, 43.657 sec
 * ratio c/w:    14.630 speedup

