      -----------------------------------------------------------      
     |                   =====================                   |     
     |                           x T B                           |     
     |                   =====================                   |     
     |                         S. Grimme                         |     
     |          Mulliken Center for Theoretical Chemistry        |     
     |                    University of Bonn                     |     
      -----------------------------------------------------------      

   * xtb version 6.7.1 (edcfbbe) compiled by 'conda@c0858423619e' on 2025-09-04

   xtb is free software: you can redistribute it and/or modify it under
   the terms of the GNU Lesser General Public License as published by
   the Free Software Foundation, either version 3 of the License, or
   (at your option) any later version.
   
   xtb is distributed in the hope that it will be useful,
   but WITHOUT ANY WARRANTY; without even the implied warranty of
   MERCHANTABILITY or FITNESS FOR A PARTICULAR PURPOSE.  See the
   GNU Lesser General Public License for more details.
   
   Cite this work as:
   * C. Bannwarth, E. Caldeweyher, S. Ehlert, A. Hansen, P. Pracht,
     J. Seibert, S. Spicher, S. Grimme, WIREs Comput. Mol. Sci., 2020, 11,
     e01493. DOI: 10.1002/wcms.1493
   
   for GFN2-xTB:
   * C. Bannwarth, S. Ehlert and S. Grimme., J. Chem. Theory Comput., 2019,
     15, 1652-1671. DOI: 10.1021/acs.jctc.8b01176
   for GFN1-xTB:
   * S. Grimme, C. Bannwarth, P. Shushkov, J. Chem. Theory Comput., 2017,
     13, 1989-2009. DOI: 10.1021/acs.jctc.7b00118
   for GFN0-xTB:
   * P. Pracht, E. Caldeweyher, S. Ehlert, S. Grimme, ChemRxiv, 2019, preprint.
     DOI: 10.26434/chemrxiv.8326202.v1
   for GFN-FF:
   * S. Spicher and S. Grimme, Angew. Chem. Int. Ed., 2020, 59, 15665-15673.
     DOI: 10.1002/anie.202004239
   
   for ALPB and GBSA implicit solvation:
   * S. Ehlert, M. Stahn, S. Spicher, S. Grimme, J. Chem. Theory Comput.,
     2021, 17, 4250-4261. DOI: 10.1021/acs.jctc.1c00471
   
   for ddCOSMO and CPCM-X implicit solvation:
   * M. Stahn, S. Ehlert, S. Grimme, J. Phys. Chem. A,
     2023, XX, XXXX-XXXX. DOI: 10.1021/acs.jpca.3c04382
   
   for DFT-D4:
   * E. Caldeweyher, C. Bannwarth and S. Grimme, J. Chem. Phys., 2017,
     147, 034112. DOI: 10.1063/1.4993215
   * E. Caldeweyher, S. Ehlert, A. Hansen, H. Neugebauer, S. Spicher,
     C. Bannwarth and S. Grimme, J. Chem. Phys., 2019, 150, 154122.
     DOI: 10.1063/1.5090222
   * E. Caldeweyher, J.-M. Mewes, S. Ehlert and S. Grimme, Phys. Chem. Chem. Phys.
     2020, 22, 8499-8512. DOI: 10.1039/D0CP00502A
   
   for sTDA-xTB:
   * S. Grimme and C. Bannwarth, J. Chem. Phys., 2016, 145, 054103.
     DOI: 10.1063/1.4959605
   
   in the mass-spec context:
   * V. Asgeirsson, C. Bauer and S. Grimme, Chem. Sci., 2017, 8, 4879.
     DOI: 10.1039/c7sc00601b
   * J. Koopman and S. Grimme, ACS Omega 2019, 4, 12, 15120-15133.
     DOI: 10.1021/acsomega.9b02011
   
   for metadynamics refer to:
   * S. Grimme, J. Chem. Theory Comput., 2019, 155, 2847-2862
     DOI: 10.1021/acs.jctc.9b00143
   
   for SPH calculations refer to:
   * S. Spicher and S. Grimme, J. Chem. Theory Comput., 2021, 17, 1701-1714
     DOI: 10.1021/acs.jctc.0c01306
   
   for ONIOM refer to:
   * C. Plett, A. Katbashev, S. Ehlert, S. Grimme, M. Bursch,
     Phys. Chem. Chem. Phys., 2023, 25, 17860-17868. DOI: 10.1039/D3CP02178E
   
   for DIPRO refer to:
   * J. Kohn, N. Gildemeister, S. Grimme, D. Fazzi, A. Hansen,
     J. Chem. Phys., 2023, just accepted.
   
   for PTB refer to:
   * S. Grimme, M. Mueller, A. Hansen, J. Chem. Phys., 2023, 158, 124111.
     DOI: 10.1063/5.0137838
   
   with help from (in alphabetical order)
   P. Atkinson, C. Bannwarth, F. Bohle, G. Brandenburg, E. Caldeweyher
   M. Checinski, S. Dohm, S. Ehlert, S. Ehrlich, I. Gerasimov, C. Hölzer
   A. Katbashev, J. Kohn, J. Koopman, C. Lavigne, S. Lehtola, F. März, M. Müller,
   F. Musil, H. Neugebauer, J. Pisarek, C. Plett, P. Pracht, F. Pultar,
   J. Seibert, P. Shushkov, S. Spicher, M. Stahn, M. Steiner, T. Strunk,
   J. Stückrath, T. Rose, and J. Unsleber
   
 * started run on 2026/01/05 at 09:07:38.060     
   ID    Z sym.   atoms
    1    6 C      1, 3-11, 14-16, 18, 20, 21, 24-29, 32, 62, 64, 67, 68, 70,
                  72, 74, 76, 78, 82, 84, 87, 90, 94, 96, 99, 100, 102, 104,
                  107, 109, 111, 115, 117, 120, 122, 126, 128, 132, 134, 136,
                  140, 143, 147, 151, 153, 155, 159, 162, 166
    2    7 N      2, 22, 60, 80, 92, 113, 121, 124, 130, 149
    3    8 O      12, 13, 17, 30, 31, 79, 88, 89, 91, 105, 112, 129, 148, 167
    4   16 S      19, 23
    5    1 H      33-59, 61, 63, 65, 66, 69, 71, 73, 75, 77, 81, 83, 85, 86,
                  93, 95, 97, 98, 101, 103, 106, 108, 110, 114, 116, 118,
                  119, 123, 125, 127, 131, 133, 135, 137-139, 141, 142,
                  144-146, 150, 152, 154, 156-158, 160, 161, 163-165, 168-175

           -------------------------------------------------
          |                Calculation Setup                |
           -------------------------------------------------

          program call               : xtb /home/antonio_mesquita/Documentos/gmx_ISA_project/testes_arquivos_primeiros/gmx_ISA_testes/testes_qm_xtb/QM_analysis/QM_FRAMES_CAPPED/frame_4400ps/complex_capped_4400ps.xyz --gfn 2 --alpb water --chrg 0 --etemp 1500 --cycles 1000
          coordinate file            : /home/antonio_mesquita/Documentos/gmx_ISA_project/testes_arquivos_primeiros/gmx_ISA_testes/testes_qm_xtb/QM_analysis/QM_FRAMES_CAPPED/frame_4400ps/complex_capped_4400ps.xyz
          omp threads                :                    16


molecular fragmentation (1/2 indicates fragments):
111111111111111111111111111111111111111111111111111111111112222222222222
222222222222222222222222222222222222222222222222222222222222222222222222
2222222222222222222222222222222
# atoms in fragment 1/2:    59   116
 fragment masses (1/2) :      475.60      795.95
CMA distance (Bohr)    :  19.844
constraining FC (au)   :  0.0500

           -------------------------------------------------
          |                 G F N 2 - x T B                 |
           -------------------------------------------------

        Reference                      10.1021/acs.jctc.8b01176
      * Hamiltonian:
        H0-scaling (s, p, d)           1.850000    2.230000    2.230000
        zeta-weighting                 0.500000
      * Dispersion:
        s8                             2.700000
        a1                             0.520000
        a2                             5.000000
        s9                             5.000000
      * Repulsion:
        kExp                           1.500000    1.000000
        rExp                           1.000000
      * Coulomb:
        alpha                          2.000000
        third order                    shell-resolved
        anisotropic                    true
        a3                             3.000000
        a5                             4.000000
        cn-shift                       1.200000
        cn-exp                         4.000000
        max-rad                        5.000000

      * Solvation model:               ALPB
        Solvent                        water
        Parameter file                 internal GFN2-xTB/ALPB
        Dielectric constant                8.0200E+01
        Reference state                gsolv [1 M gas/solution]
        Free energy shift                  1.0808E-03 Eh       6.7819E-01 kcal/mol
        Temperature                        2.9815E+02 K
        Density                            1.0000E+00 kg/L
        Solvent mass                       1.8000E+01 g/mol
        Interaction kernel             P16
        Born radius scaling (c1)           1.4744E+00
        Born radii integrator          GBOBC
        Born offset                        0.0000E+00 a0       0.0000E+00 AA
        H-bond correction              true
        Ion screening                  false
        Surface tension                    1.0000E-05 Eh       1.5569E+01 dyn/cm
        Grid points                               230 per atom

          ...................................................
          :                      SETUP                      :
          :.................................................:
          :  # basis functions                 454          :
          :  # atomic orbitals                 452          :
          :  # shells                          266          :
          :  # electrons                       484          :
          :  max. iterations                   250          :
          :  Hamiltonian                  GFN2-xTB          :
          :  restarted?                      false          :
          :  GBSA solvation                   true          :
          :  PC potential                    false          :
          :  electronic temp.         1500.0000000     K    :
          :  accuracy                    1.0000000          :
          :  -> integral cutoff          0.2500000E+02      :
          :  -> integral neglect         0.1000000E-07      :
          :  -> SCF convergence          0.1000000E-05 Eh   :
          :  -> wf. convergence          0.1000000E-03 e    :
          :  Broyden damping             0.4000000          :
          :  net charge                          0          :
          :  unpaired electrons                  0          :
          ...................................................

 iter      E             dE          RMSdq      gap      omega  full diag
   1   -273.9210368 -0.273921E+03  0.453E+00    0.07       0.0  T
   2   -274.3144772 -0.393440E+00  0.270E+00    1.58       1.0  T
   3   -274.2360560  0.784213E-01  0.187E+00    0.12       1.0  T
   4   -274.4815456 -0.245490E+00  0.951E-01    0.39       1.0  T
   5   -274.5286144 -0.470688E-01  0.613E-01    0.00       1.0  T
   6   -274.5915088 -0.628943E-01  0.230E-01    0.30       1.0  T
   7   -274.5722899  0.192188E-01  0.354E-01    0.00       1.0  T
   8   -274.5938764 -0.215865E-01  0.141E-01    0.23       1.0  T
   9   -274.5907351  0.314135E-02  0.168E-01    0.32       1.0  T
  10   -274.5948944 -0.415934E-02  0.933E-02    0.21       1.0  T
  11   -274.5960432 -0.114878E-02  0.500E-02    0.23       1.0  T
  12   -274.5962844 -0.241190E-03  0.319E-02    0.21       1.0  T
  13   -274.5963885 -0.104066E-03  0.197E-02    0.22       1.0  T
  14   -274.5964451 -0.566087E-04  0.842E-03    0.22       1.0  T
  15   -274.5964520 -0.693235E-05  0.423E-03    0.22       1.8  T
  16   -274.5964530 -0.967850E-06  0.313E-03    0.22       2.4  T
  17   -274.5964548 -0.180637E-05  0.913E-04    0.22       8.3  T
  18   -274.5964549 -0.942882E-07  0.413E-04    0.22      18.3  T
  19   -274.5964549 -0.194046E-08  0.291E-04    0.22      26.0  T

   *** convergence criteria satisfied after 19 iterations ***

         #    Occupation            Energy/Eh            Energy/eV
      -------------------------------------------------------------
         1        2.0000           -0.7941028             -21.6086
       ...           ...                  ...                  ...
       236        1.9791           -0.3780273             -10.2866
       237        1.9625           -0.3752036             -10.2098
       238        1.9584           -0.3746994             -10.1961
       239        1.8612           -0.3687378             -10.0339
       240        1.8323           -0.3677650             -10.0074
       241        1.7596           -0.3658617              -9.9556
       242        1.6901           -0.3644638              -9.9176 (HOMO)
       243        0.9932           -0.3563419              -9.6966 (LUMO)
       244        0.0000           -0.2974074              -8.0929
       245        0.0000           -0.2938648              -7.9965
       246        0.0000           -0.2896750              -7.8825
       247        0.0000           -0.2826895              -7.6924
       ...           ...                  ...                  ...
       452                          1.0226319              27.8272
      -------------------------------------------------------------
                  HL-Gap            0.0081219 Eh            0.2210 eV
             Fermi-level           -0.3564062 Eh           -9.6983 eV

 SCC (total)                   0 d,  0 h,  0 min,  1.301 sec
 SCC setup                      ...        0 min,  0.014 sec (  1.091%)
 Dispersion                     ...        0 min,  0.015 sec (  1.161%)
 classical contributions        ...        0 min,  0.002 sec (  0.157%)
 integral evaluation            ...        0 min,  0.039 sec (  3.011%)
 iterations                     ...        0 min,  1.089 sec ( 83.698%)
 molecular gradient             ...        0 min,  0.139 sec ( 10.710%)
 printout                       ...        0 min,  0.002 sec (  0.169%)

         :::::::::::::::::::::::::::::::::::::::::::::::::::::
         ::                     SUMMARY                     ::
         :::::::::::::::::::::::::::::::::::::::::::::::::::::
         :: total energy            -271.229706983695 Eh    ::
         :: total w/o Gsasa/hb      -271.212745132093 Eh    ::
         :: gradient norm              0.238699231973 Eh/a0 ::
         :: HOMO-LUMO gap              0.221008967956 eV    ::
         ::.................................................::
         :: SCC energy              -274.583914918336 Eh    ::
         :: -> isotropic ES            0.657185490932 Eh    ::
         :: -> anisotropic ES         -0.017864815036 Eh    ::
         :: -> anisotropic XC          0.119161559915 Eh    ::
         :: -> dispersion             -0.215393864568 Eh    ::
         :: -> Gsolv                  -0.168681342696 Eh    ::
         ::    -> Gelec               -0.151719491094 Eh    ::
         ::    -> Gsasa                0.008965462129 Eh    ::
         ::    -> Ghb                 -0.027008073429 Eh    ::
         ::    -> Gshift               0.001080759698 Eh    ::
         :: repulsion energy           3.354207934641 Eh    ::
         :: add. restraining           0.000000000000 Eh    ::
         :: total charge               0.000000000011 e     ::
         :::::::::::::::::::::::::::::::::::::::::::::::::::::

           -------------------------------------------------
          |                Property Printout                |
           -------------------------------------------------

    * Orbital Energies and Occupations

         #    Occupation            Energy/Eh            Energy/eV
      -------------------------------------------------------------
         1        2.0000           -0.7941028             -21.6086
       ...           ...                  ...                  ...
       230        1.9995           -0.3959882             -10.7754
       231        1.9995           -0.3955666             -10.7639
       232        1.9993           -0.3942489             -10.7281
       233        1.9982           -0.3896293             -10.6024
       234        1.9866           -0.3801424             -10.3442
       235        1.9816           -0.3786441             -10.3034
       236        1.9791           -0.3780273             -10.2866
       237        1.9625           -0.3752036             -10.2098
       238        1.9584           -0.3746994             -10.1961
       239        1.8612           -0.3687378             -10.0339
       240        1.8323           -0.3677650             -10.0074
       241        1.7596           -0.3658617              -9.9556
       242        1.6901           -0.3644638              -9.9176 (HOMO)
       243        0.9932           -0.3563419              -9.6966 (LUMO)
       244        0.0000           -0.2974074              -8.0929
       245        0.0000           -0.2938648              -7.9965
       246        0.0000           -0.2896750              -7.8825
       247        0.0000           -0.2826895              -7.6924
       248                         -0.2572439              -7.0000
       249                         -0.2515477              -6.8450
       250                         -0.2445501              -6.6545
       251                         -0.2302577              -6.2656
       252                         -0.2289098              -6.2290
       253                         -0.2288787              -6.2281
       ...                                ...                  ...
       452                          1.0226319              27.8272
      -------------------------------------------------------------
                  HL-Gap            0.0081219 Eh            0.2210 eV
             Fermi-level           -0.3564062 Eh           -9.6983 eV

     #   Z          covCN         q      C6AA      α(0)
     1   6 C        2.744     0.274    22.373     7.745
     2   7 N        2.691    -0.115    23.503     7.200
     3   6 C        2.869     0.025    27.451     8.589
     4   6 C        3.690     0.079    19.439     6.310
     5   6 C        3.809    -0.071    21.853     6.654
     6   6 C        2.985     0.024    27.470     8.597
     7   6 C        2.907    -0.046    29.140     8.851
     8   6 C        2.919    -0.036    28.897     8.815
     9   6 C        2.904    -0.039    28.968     8.825
    10   6 C        2.926    -0.033    28.834     8.806
    11   6 C        2.903    -0.036    28.906     8.816
    12   8 O        1.703    -0.283    18.693     5.837
    13   8 O        0.856    -0.500    23.784     6.539
    14   6 C        2.715     0.333    21.341     7.562
    15   6 C        3.745    -0.132    23.109     6.857
    16   6 C        3.848     0.011    20.351     6.417
    17   8 O        0.857    -0.446    22.631     6.378
    18   6 C        3.792    -0.028    21.085     6.539
    19  16 S        1.983    -0.184   148.857    20.535
    20   6 C        3.790    -0.041    21.311     6.575
    21   6 C        3.848     0.018    20.240     6.399
    22   7 N        2.732    -0.292    27.510     7.790
    23  16 S        3.790     1.150   102.447    17.035
    24   6 C        2.954    -0.094    30.373     9.039
    25   6 C        2.947    -0.032    28.793     8.801
    26   6 C        2.913    -0.036    28.896     8.815
    27   6 C        2.966     0.039    27.121     8.542
    28   6 C        2.911    -0.034    28.843     8.806
    29   6 C        2.952    -0.029    28.725     8.791
    30   8 O        0.860    -0.656    27.534     7.035
    31   8 O        0.860    -0.629    26.845     6.947
    32   6 C        3.755    -0.125    22.956     6.832
    33   1 H        0.860     0.246     0.901     1.487
    34   1 H        0.922     0.061     2.187     2.313
    35   1 H        0.924     0.059     2.212     2.326
    36   1 H        0.924     0.091     1.868     2.137
    37   1 H        0.923     0.077     2.011     2.218
    38   1 H        0.925     0.043     2.412     2.429
    39   1 H        0.924     0.046     2.371     2.408
    40   1 H        0.925     0.050     2.326     2.385
    41   1 H        0.926     0.042     2.425     2.435
    42   1 H        0.926     0.044     2.391     2.418
    43   1 H        0.923     0.074     2.043     2.235
    44   1 H        0.925     0.065     2.137     2.286
    45   1 H        0.924     0.064     2.149     2.292
    46   1 H        0.923     0.052     2.298     2.371
    47   1 H        0.923     0.055     2.258     2.350
    48   1 H        0.924     0.083     1.945     2.181
    49   1 H        0.923     0.079     1.985     2.204
    50   1 H        0.923     0.100     1.781     2.087
    51   1 H        0.924     0.101     1.773     2.082
    52   1 H        0.924     0.103     1.754     2.071
    53   1 H        0.925     0.068     2.111     2.272
    54   1 H        0.925     0.100     1.786     2.090
    55   1 H        0.925     0.055     2.254     2.348
    56   1 H        0.925     0.042     2.424     2.435
    57   1 H        0.924     0.073     2.057     2.243
    58   1 H        0.923     0.051     2.308     2.376
    59   1 H        0.924     0.086     1.921     2.167
    60   7 N        2.632    -0.335    28.632     7.947
    61   1 H        0.860     0.179     1.222     1.732
    62   6 C        3.789     0.034    20.021     6.373
    63   1 H        0.924     0.078     2.001     2.212
    64   6 C        3.810    -0.067    21.773     6.642
    65   1 H        0.924     0.072     2.060     2.245
    66   1 H        0.924     0.055     2.259     2.351
    67   6 C        2.959     0.010    27.783     8.646
    68   6 C        2.922    -0.044    29.102     8.847
    69   1 H        0.926     0.046     2.374     2.409
    70   6 C        2.905    -0.039    28.962     8.824
    71   1 H        0.925     0.047     2.359     2.402
    72   6 C        2.915    -0.035    28.880     8.812
    73   1 H        0.925     0.041     2.437     2.441
    74   6 C        2.907    -0.031    28.783     8.797
    75   1 H        0.926     0.032     2.564     2.504
    76   6 C        2.917    -0.037    28.918     8.818
    77   1 H        0.926     0.019     2.754     2.595
    78   6 C        2.747     0.272    22.396     7.749
    79   8 O        0.859    -0.510    24.007     6.569
    80   7 N        2.693    -0.164    24.552     7.359
    81   1 H        0.860     0.216     1.029     1.589
    82   6 C        3.787     0.042    19.876     6.350
    83   1 H        0.924     0.073     2.048     2.238
    84   6 C        3.810    -0.081    22.047     6.684
    85   1 H        0.924     0.058     2.228     2.334
    86   1 H        0.925     0.073     2.055     2.242
    87   6 C        2.688     0.364    20.826     7.469
    88   8 O        0.857    -0.647    27.309     7.006
    89   8 O        0.857    -0.626    26.764     6.936
    90   6 C        2.757     0.211    23.534     7.944
    91   8 O        0.856    -0.358    20.851     6.122
    92   7 N        2.636    -0.317    28.167     7.882
    93   1 H        0.860     0.202     1.096     1.640
    94   6 C        3.784     0.036    19.980     6.367
    95   1 H        0.924     0.101     1.773     2.082
    96   6 C        3.817    -0.077    21.959     6.669
    97   1 H        0.924     0.083     1.947     2.182
    98   1 H        0.924     0.075     2.037     2.232
    99   6 C        2.963     0.007    27.870     8.659
   100   6 C        2.914    -0.041    29.030     8.835
   101   1 H        0.926     0.062     2.175     2.306
   102   6 C        2.905    -0.054    29.340     8.882
   103   1 H        0.926     0.064     2.148     2.292
   104   6 C        2.838     0.151    24.712     8.147
   105   8 O        1.660    -0.441    21.658     6.282
   106   1 H        0.806     0.362     0.560     1.176
   107   6 C        2.908    -0.072    29.789     8.950
   108   1 H        0.925     0.055     2.253     2.347
   109   6 C        2.911    -0.045    29.112     8.847
   110   1 H        0.926     0.062     2.176     2.307
   111   6 C        2.758     0.205    23.654     7.964
   112   8 O        0.856    -0.370    21.099     6.158
   113   7 N        2.636    -0.297    27.648     7.809
   114   1 H        0.860     0.201     1.101     1.644
   115   6 C        3.792     0.040    19.917     6.356
   116   1 H        0.924     0.068     2.105     2.269
   117   6 C        3.810    -0.075    21.925     6.665
   118   1 H        0.924     0.062     2.179     2.308
   119   1 H        0.925     0.087     1.910     2.161
   120   6 C        3.072     0.047    26.877     8.500
   121   7 N        1.943    -0.290    28.345     7.895
   122   6 C        3.021     0.082    26.143     8.387
   123   1 H        0.925     0.055     2.255     2.348
   124   7 N        2.796    -0.094    23.068     7.133
   125   1 H        0.860     0.190     1.157     1.685
   126   6 C        3.032    -0.030    28.728     8.792
   127   1 H        0.926     0.037     2.483     2.464
   128   6 C        2.769     0.196    23.828     7.994
   129   8 O        0.858    -0.373    21.148     6.166
   130   7 N        2.632    -0.320    28.250     7.894
   131   1 H        0.860     0.196     1.129     1.664
   132   6 C        3.790     0.020    20.242     6.407
   133   1 H        0.925     0.070     2.081     2.256
   134   6 C        3.856    -0.027    21.022     6.521
   135   1 H        0.924     0.046     2.376     2.410
   136   6 C        3.751    -0.118    22.831     6.814
   137   1 H        0.924     0.044     2.402     2.424
   138   1 H        0.925     0.045     2.384     2.415
   139   1 H        0.925     0.056     2.241     2.341
   140   6 C        3.803    -0.058    21.613     6.619
   141   1 H        0.924     0.029     2.608     2.525
   142   1 H        0.925     0.047     2.363     2.404
   143   6 C        3.748    -0.109    22.649     6.788
   144   1 H        0.924     0.044     2.398     2.421
   145   1 H        0.925     0.039     2.463     2.454
   146   1 H        0.924     0.040     2.445     2.445
   147   6 C        2.756     0.270    22.440     7.757
   148   8 O        0.860    -0.515    24.112     6.584
   149   7 N        2.691    -0.159    24.438     7.342
   150   1 H        0.860     0.246     0.898     1.485
   151   6 C        3.800     0.027    20.114     6.386
   152   1 H        0.924     0.080     1.980     2.200
   153   6 C        3.857    -0.029    21.050     6.525
   154   1 H        0.925     0.075     2.031     2.229
   155   6 C        3.761    -0.127    22.986     6.834
   156   1 H        0.925     0.053     2.278     2.360
   157   1 H        0.924     0.068     2.105     2.269
   158   1 H        0.925     0.038     2.471     2.458
   159   6 C        3.810    -0.060    21.646     6.623
   160   1 H        0.925     0.018     2.770     2.603
   161   1 H        0.924     0.024     2.677     2.559
   162   6 C        3.749    -0.116    22.786     6.808
   163   1 H        0.924     0.059     2.209     2.324
   164   1 H        0.925     0.040     2.443     2.444
   165   1 H        0.924     0.049     2.328     2.386
   166   6 C        2.760     0.211    23.521     7.942
   167   8 O        0.856    -0.350    20.711     6.102
   168   1 H        0.860     0.210     1.054     1.609
   169   1 H        0.923     0.067     2.124     2.279
   170   1 H        0.860     0.210     1.058     1.611
   171   1 H        0.923     0.073     2.048     2.238
   172   1 H        0.860     0.203     1.090     1.636
   173   1 H        0.923     0.063     2.168     2.303
   174   1 H        0.860     0.214     1.038     1.596
   175   1 H        0.923     0.068     2.111     2.272

 Mol. C6AA /au·bohr⁶  :     328847.689765
 Mol. C8AA /au·bohr⁸  :    7813620.705385
 Mol. α(0) /au        :        880.461504


Wiberg/Mayer (AO) data.
largest (>0.10) Wiberg bond orders for each atom

 ---------------------------------------------------------------------------
     #   Z sym  total        # sym  WBO       # sym  WBO       # sym  WBO
 ---------------------------------------------------------------------------
     1   6 C    3.886 --    17 O    1.680     2 N    1.182    21 C    0.941
     2   7 N    3.490 --     3 C    1.188     1 C    1.182    33 H    0.888
                            17 O    0.134
     3   6 C    3.482 --     2 N    1.188    14 C    1.098     5 C    1.030
     4   6 C    3.910 --    15 C    1.011    34 H    0.967    35 H    0.966
                            12 O    0.931
     5   6 C    3.965 --     3 C    1.030     6 C    0.977    37 H    0.940
                            36 H    0.938
     6   6 C    3.957 --     7 C    1.414    11 C    1.412     5 C    0.977
                             9 C    0.107
     7   6 C    3.985 --     8 C    1.438     6 C    1.414    38 H    0.968
                            10 C    0.112
     8   6 C    3.987 --     9 C    1.439     7 C    1.438    39 H    0.968
                            11 C    0.113
     9   6 C    3.988 --     8 C    1.439    10 C    1.436    40 H    0.970
                             6 C    0.107
    10   6 C    3.987 --    11 C    1.439     9 C    1.436    41 H    0.970
                             7 C    0.112
    11   6 C    3.986 --    10 C    1.439     6 C    1.412    42 H    0.967
                             8 C    0.113
    12   8 O    2.242 --    14 C    1.100     4 C    0.931    13 O    0.148
    13   8 O    1.858 --    14 C    1.594    12 O    0.148
    14   6 C    3.866 --    13 O    1.594    12 O    1.100     3 C    1.098
    15   6 C    3.982 --     4 C    1.011    45 H    0.985    44 H    0.984
                            43 H    0.982
    16   6 C    3.964 --    18 C    1.003    22 N    0.990    46 H    0.965
                            47 H    0.957
    17   8 O    1.942 --     1 C    1.680     2 N    0.134
    18   6 C    3.972 --    16 C    1.003    19 S    0.987    49 H    0.971
                            48 H    0.970
    19  16 S    2.081 --    20 C    0.994    18 C    0.987
    20   6 C    3.969 --    19 S    0.994    21 C    0.991    50 H    0.964
                            51 H    0.957
    21   6 C    3.959 --    20 C    0.991    22 N    0.974     1 C    0.941
                            52 H    0.919
    22   7 N    3.186 --    16 C    0.990    21 C    0.974    23 S    0.895
    23  16 S    4.845 --    31 O    1.562    30 O    1.537    22 N    0.895
                            24 C    0.747
    24   6 C    3.947 --    29 C    1.408    25 C    1.405    23 S    0.747
    25   6 C    3.982 --    26 C    1.442    24 C    1.405    53 H    0.963
                            28 C    0.105
    26   6 C    3.979 --    25 C    1.442    27 C    1.403    54 H    0.959
                            29 C    0.106
    27   6 C    3.981 --    26 C    1.403    28 C    1.400    32 C    1.027
    28   6 C    3.987 --    29 C    1.444    27 C    1.400    55 H    0.967
                            25 C    0.105
    29   6 C    3.989 --    28 C    1.444    24 C    1.408    56 H    0.965
                            26 C    0.106
    30   8 O    1.841 --    23 S    1.537    31 O    0.103
    31   8 O    1.857 --    23 S    1.562    30 O    0.103
    32   6 C    3.985 --    27 C    1.027    58 H    0.979    59 H    0.974
                            57 H    0.954
    33   1 H    0.939 --     2 N    0.888
    34   1 H    0.995 --     4 C    0.967
    35   1 H    0.991 --     4 C    0.966
    36   1 H    0.987 --     5 C    0.938
    37   1 H    0.972 --     5 C    0.940
    38   1 H    0.998 --     7 C    0.968
    39   1 H    0.997 --     8 C    0.968
    40   1 H    0.997 --     9 C    0.970
    41   1 H    0.997 --    10 C    0.970
    42   1 H    0.998 --    11 C    0.967
    43   1 H    0.994 --    15 C    0.982
    44   1 H    0.996 --    15 C    0.984
    45   1 H    0.996 --    15 C    0.985
    46   1 H    0.997 --    16 C    0.965
    47   1 H    0.997 --    16 C    0.957
    48   1 H    0.992 --    18 C    0.970
    49   1 H    0.993 --    18 C    0.971
    50   1 H    0.988 --    20 C    0.964
    51   1 H    0.989 --    20 C    0.957
    52   1 H    0.985 --    21 C    0.919
    53   1 H    0.995 --    25 C    0.963
    54   1 H    0.989 --    26 C    0.959
    55   1 H    0.996 --    28 C    0.967
    56   1 H    0.998 --    29 C    0.965
    57   1 H    0.994 --    32 C    0.954
    58   1 H    0.997 --    32 C    0.979
    59   1 H    0.992 --    32 C    0.974
    60   7 N    2.993 --    62 C    1.033    61 H    0.950   168 H    0.941
    61   1 H    0.968 --    60 N    0.950
    62   6 C    3.967 --    60 N    1.033    64 C    0.951    63 H    0.945
                            78 C    0.932
    63   1 H    0.992 --    62 C    0.945
    64   6 C    3.975 --    67 C    1.011    65 H    0.968    66 H    0.953
                            62 C    0.951
    65   1 H    0.993 --    64 C    0.968
    66   1 H    0.995 --    64 C    0.953
    67   6 C    3.985 --    68 C    1.426    76 C    1.394    64 C    1.011
                            72 C    0.108
    68   6 C    3.987 --    70 C    1.428    67 C    1.426    69 H    0.969
                            74 C    0.109
    69   1 H    0.998 --    68 C    0.969
    70   6 C    3.989 --    72 C    1.452    68 C    1.428    71 H    0.970
                            76 C    0.112
    71   1 H    0.998 --    70 C    0.970
    72   6 C    3.986 --    70 C    1.452    74 C    1.419    73 H    0.971
                            67 C    0.108
    73   1 H    0.998 --    72 C    0.971
    74   6 C    3.990 --    76 C    1.459    72 C    1.419    75 H    0.971
                            68 C    0.109
    75   1 H    0.999 --    74 C    0.971
    76   6 C    3.989 --    74 C    1.459    67 C    1.394    77 H    0.966
                            70 C    0.112
    77   1 H    1.000 --    76 C    0.966
    78   6 C    3.921 --    79 O    1.606    80 N    1.305    62 C    0.932
    79   8 O    1.913 --    78 C    1.606    80 N    0.191
    80   7 N    3.469 --    78 C    1.305    82 C    0.980    81 H    0.912
                            79 O    0.191
    81   1 H    0.953 --    80 N    0.912
    82   6 C    3.972 --    90 C    0.988    80 N    0.980    83 H    0.953
                            84 C    0.943
    83   1 H    0.994 --    82 C    0.953
    84   6 C    3.965 --    85 H    0.970    86 H    0.944    82 C    0.943
                            87 C    0.933
    85   1 H    0.996 --    84 C    0.970
    86   1 H    0.994 --    84 C    0.944
    87   6 C    3.933 --    89 O    1.500    88 O    1.477    84 C    0.933
    88   8 O    1.757 --    87 C    1.477    89 O    0.213
    89   8 O    1.783 --    87 C    1.500    88 O    0.213
    90   6 C    3.889 --    91 O    1.901    82 C    0.988   169 H    0.939
    91   8 O    2.056 --    90 C    1.901
    92   7 N    2.986 --    94 C    1.042    93 H    0.943   170 H    0.943
    93   1 H    0.959 --    92 N    0.943
    94   6 C    3.958 --    92 N    1.042   111 C    0.971    96 C    0.930
                            95 H    0.922
    95   1 H    0.990 --    94 C    0.922
    96   6 C    3.955 --    99 C    1.015    98 H    0.965    97 H    0.953
                            94 C    0.930
    97   1 H    0.985 --    96 C    0.953
    98   1 H    0.994 --    96 C    0.965
    99   6 C    3.946 --   100 C    1.393   109 C    1.390    96 C    1.015
   100   6 C    3.973 --   102 C    1.462    99 C    1.393   101 H    0.966
   101   1 H    0.996 --   100 C    0.966
   102   6 C    3.968 --   100 C    1.462   104 C    1.343   103 H    0.967
                           109 C    0.106
   103   1 H    0.995 --   102 C    0.967
   104   6 C    3.892 --   107 C    1.356   102 C    1.343   105 O    1.079
   105   8 O    2.073 --   104 C    1.079   106 H    0.848
   106   1 H    0.868 --   105 O    0.848
   107   6 C    3.963 --   109 C    1.455   104 C    1.356   108 H    0.964
   108   1 H    0.997 --   107 C    0.964
   109   6 C    3.971 --   107 C    1.455    99 C    1.390   110 H    0.965
                           102 C    0.106
   110   1 H    0.996 --   109 C    0.965
   111   6 C    3.863 --   112 O    1.891    94 C    0.971   171 H    0.930
   112   8 O    2.050 --   111 C    1.891
   113   7 N    3.070 --   115 C    1.018   172 H    0.943   114 H    0.923
   114   1 H    0.959 --   113 N    0.923
   115   6 C    3.967 --   113 N    1.018   116 H    0.963   128 C    0.960
                           117 C    0.949
   116   1 H    0.995 --   115 C    0.963
   117   6 C    3.974 --   120 C    1.010   118 H    0.963   119 H    0.961
                           115 C    0.949
   118   1 H    0.996 --   117 C    0.963
   119   1 H    0.990 --   117 C    0.961
   120   6 C    3.959 --   126 C    1.549   121 N    1.266   117 C    1.010
   121   7 N    2.991 --   122 C    1.530   120 C    1.266   124 N    0.101
   122   6 C    3.948 --   121 N    1.530   124 N    1.283   123 H    0.963
                           126 C    0.112
   123   1 H    0.997 --   122 C    0.963
   124   7 N    3.600 --   122 C    1.283   126 C    1.209   125 H    0.934
                           121 N    0.101
   125   1 H    0.963 --   124 N    0.934
   126   6 C    3.918 --   120 C    1.549   124 N    1.209   127 H    0.966
                           122 C    0.112
   127   1 H    0.998 --   126 C    0.966
   128   6 C    3.861 --   129 O    1.853   115 C    0.960   173 H    0.938
   129   8 O    2.051 --   128 C    1.853
   130   7 N    2.962 --   132 C    1.026   131 H    0.941   174 H    0.939
   131   1 H    0.961 --   130 N    0.941
   132   6 C    3.952 --   130 N    1.026   133 H    0.945   134 C    0.944
                           147 C    0.932
   133   1 H    0.983 --   132 C    0.945
   134   6 C    3.955 --   136 C    1.004   140 C    0.992   135 H    0.962
                           132 C    0.944
   135   1 H    0.996 --   134 C    0.962
   136   6 C    3.990 --   134 C    1.004   138 H    0.984   137 H    0.979
                           139 H    0.975
   137   1 H    0.998 --   136 C    0.979
   138   1 H    0.996 --   136 C    0.984
Note: The following floating-point exceptions are signalling: IEEE_UNDERFLOW_FLAG IEEE_DENORMAL
normal termination of xtb
   139   1 H    0.996 --   136 C    0.975
   140   6 C    3.990 --   143 C    1.020   134 C    0.992   142 H    0.971
                           141 H    0.967
   141   1 H    0.999 --   140 C    0.967
   142   1 H    0.993 --   140 C    0.971
   143   6 C    3.993 --   140 C    1.020   144 H    0.987   146 H    0.984
                           145 H    0.983
   144   1 H    0.998 --   143 C    0.987
   145   1 H    0.998 --   143 C    0.983
   146   1 H    0.998 --   143 C    0.984
   147   6 C    3.940 --   148 O    1.607   149 N    1.327   132 C    0.932
   148   8 O    1.912 --   147 C    1.607   149 N    0.195
   149   7 N    3.489 --   147 C    1.327   151 C    0.970   150 H    0.877
                           148 O    0.195
   150   1 H    0.939 --   149 N    0.877
   151   6 C    3.961 --   149 N    0.970   166 C    0.968   153 C    0.957
                           152 H    0.955
   152   1 H    0.993 --   151 C    0.955
   153   6 C    3.983 --   155 C    1.009   159 C    0.991   151 C    0.957
                           154 H    0.952
   154   1 H    0.994 --   153 C    0.952
   155   6 C    3.989 --   153 C    1.009   156 H    0.983   158 H    0.982
                           157 H    0.975
   156   1 H    0.997 --   155 C    0.983
   157   1 H    0.995 --   155 C    0.975
   158   1 H    0.998 --   155 C    0.982
   159   6 C    3.993 --   162 C    1.018   153 C    0.991   161 H    0.974
                           160 H    0.971
   160   1 H    1.000 --   159 C    0.971
   161   1 H    0.999 --   159 C    0.974
   162   6 C    3.992 --   159 C    1.018   165 H    0.983   164 H    0.982
                           163 H    0.980
   163   1 H    0.996 --   162 C    0.980
   164   1 H    0.998 --   162 C    0.982
   165   1 H    0.997 --   162 C    0.983
   166   6 C    3.885 --   167 O    1.907   151 C    0.968   175 H    0.937
   167   8 O    2.071 --   166 C    1.907
   168   1 H    0.956 --    60 N    0.941
   169   1 H    0.995 --    90 C    0.939
   170   1 H    0.956 --    92 N    0.943
   171   1 H    0.988 --   111 C    0.930
   172   1 H    0.957 --   113 N    0.943
   173   1 H    0.990 --   128 C    0.938
   174   1 H    0.954 --   130 N    0.939
   175   1 H    0.995 --   166 C    0.937
 ---------------------------------------------------------------------------

Topologies differ in total number of bonds
Writing topology from bond orders to xtbtopo.mol

molecular dipole:
                 x           y           z       tot (Debye)
 q only:       11.853      -6.156       1.342
   full:       10.769      -6.735       0.617      32.323
molecular quadrupole (traceless):
                xx          xy          yy          xz          yz          zz
 q only:      828.459     107.877    -847.209    1739.078    -831.368      18.750
  q+dip:      840.707      58.745    -761.008    1547.270    -943.274     -79.699
   full:      841.507      57.171    -758.733    1550.999    -943.148     -82.774


           -------------------------------------------------
          | TOTAL ENERGY             -271.229706983695 Eh   |
          | GRADIENT NORM               0.238699231973 Eh/α |
          | HOMO-LUMO GAP               0.221008967956 eV   |
           -------------------------------------------------

------------------------------------------------------------------------
 * finished run on 2026/01/05 at 09:07:39.421     
------------------------------------------------------------------------
 total:
 * wall-time:     0 d,  0 h,  0 min,  1.361 sec
 *  cpu-time:     0 d,  0 h,  0 min, 19.867 sec
 * ratio c/w:    14.596 speedup
 SCF:
 * wall-time:     0 d,  0 h,  0 min,  1.304 sec
 *  cpu-time:     0 d,  0 h,  0 min, 19.021 sec
 * ratio c/w:    14.591 speedup

