      -----------------------------------------------------------      
     |                   =====================                   |     
     |                           x T B                           |     
     |                   =====================                   |     
     |                         S. Grimme                         |     
     |          Mulliken Center for Theoretical Chemistry        |     
     |                    University of Bonn                     |     
      -----------------------------------------------------------      

   * xtb version 6.7.1 (edcfbbe) compiled by 'conda@c0858423619e' on 2025-09-04

   xtb is free software: you can redistribute it and/or modify it under
   the terms of the GNU Lesser General Public License as published by
   the Free Software Foundation, either version 3 of the License, or
   (at your option) any later version.
   
   xtb is distributed in the hope that it will be useful,
   but WITHOUT ANY WARRANTY; without even the implied warranty of
   MERCHANTABILITY or FITNESS FOR A PARTICULAR PURPOSE.  See the
   GNU Lesser General Public License for more details.
   
   Cite this work as:
   * C. Bannwarth, E. Caldeweyher, S. Ehlert, A. Hansen, P. Pracht,
     J. Seibert, S. Spicher, S. Grimme, WIREs Comput. Mol. Sci., 2020, 11,
     e01493. DOI: 10.1002/wcms.1493
   
   for GFN2-xTB:
   * C. Bannwarth, S. Ehlert and S. Grimme., J. Chem. Theory Comput., 2019,
     15, 1652-1671. DOI: 10.1021/acs.jctc.8b01176
   for GFN1-xTB:
   * S. Grimme, C. Bannwarth, P. Shushkov, J. Chem. Theory Comput., 2017,
     13, 1989-2009. DOI: 10.1021/acs.jctc.7b00118
   for GFN0-xTB:
   * P. Pracht, E. Caldeweyher, S. Ehlert, S. Grimme, ChemRxiv, 2019, preprint.
     DOI: 10.26434/chemrxiv.8326202.v1
   for GFN-FF:
   * S. Spicher and S. Grimme, Angew. Chem. Int. Ed., 2020, 59, 15665-15673.
     DOI: 10.1002/anie.202004239
   
   for ALPB and GBSA implicit solvation:
   * S. Ehlert, M. Stahn, S. Spicher, S. Grimme, J. Chem. Theory Comput.,
     2021, 17, 4250-4261. DOI: 10.1021/acs.jctc.1c00471
   
   for ddCOSMO and CPCM-X implicit solvation:
   * M. Stahn, S. Ehlert, S. Grimme, J. Phys. Chem. A,
     2023, XX, XXXX-XXXX. DOI: 10.1021/acs.jpca.3c04382
   
   for DFT-D4:
   * E. Caldeweyher, C. Bannwarth and S. Grimme, J. Chem. Phys., 2017,
     147, 034112. DOI: 10.1063/1.4993215
   * E. Caldeweyher, S. Ehlert, A. Hansen, H. Neugebauer, S. Spicher,
     C. Bannwarth and S. Grimme, J. Chem. Phys., 2019, 150, 154122.
     DOI: 10.1063/1.5090222
   * E. Caldeweyher, J.-M. Mewes, S. Ehlert and S. Grimme, Phys. Chem. Chem. Phys.
     2020, 22, 8499-8512. DOI: 10.1039/D0CP00502A
   
   for sTDA-xTB:
   * S. Grimme and C. Bannwarth, J. Chem. Phys., 2016, 145, 054103.
     DOI: 10.1063/1.4959605
   
   in the mass-spec context:
   * V. Asgeirsson, C. Bauer and S. Grimme, Chem. Sci., 2017, 8, 4879.
     DOI: 10.1039/c7sc00601b
   * J. Koopman and S. Grimme, ACS Omega 2019, 4, 12, 15120-15133.
     DOI: 10.1021/acsomega.9b02011
   
   for metadynamics refer to:
   * S. Grimme, J. Chem. Theory Comput., 2019, 155, 2847-2862
     DOI: 10.1021/acs.jctc.9b00143
   
   for SPH calculations refer to:
   * S. Spicher and S. Grimme, J. Chem. Theory Comput., 2021, 17, 1701-1714
     DOI: 10.1021/acs.jctc.0c01306
   
   for ONIOM refer to:
   * C. Plett, A. Katbashev, S. Ehlert, S. Grimme, M. Bursch,
     Phys. Chem. Chem. Phys., 2023, 25, 17860-17868. DOI: 10.1039/D3CP02178E
   
   for DIPRO refer to:
   * J. Kohn, N. Gildemeister, S. Grimme, D. Fazzi, A. Hansen,
     J. Chem. Phys., 2023, just accepted.
   
   for PTB refer to:
   * S. Grimme, M. Mueller, A. Hansen, J. Chem. Phys., 2023, 158, 124111.
     DOI: 10.1063/5.0137838
   
   with help from (in alphabetical order)
   P. Atkinson, C. Bannwarth, F. Bohle, G. Brandenburg, E. Caldeweyher
   M. Checinski, S. Dohm, S. Ehlert, S. Ehrlich, I. Gerasimov, C. Hölzer
   A. Katbashev, J. Kohn, J. Koopman, C. Lavigne, S. Lehtola, F. März, M. Müller,
   F. Musil, H. Neugebauer, J. Pisarek, C. Plett, P. Pracht, F. Pultar,
   J. Seibert, P. Shushkov, S. Spicher, M. Stahn, M. Steiner, T. Strunk,
   J. Stückrath, T. Rose, and J. Unsleber
   
 * started run on 2026/01/05 at 09:07:25.349     
   ID    Z sym.   atoms
    1    7 N      1, 21, 33, 53, 68, 84, 105, 113, 116, 122, 141
    2    1 H      2, 4, 6, 7, 10, 12, 14, 16, 18, 22, 24, 26, 27, 34, 36, 38,
                  39, 42, 44, 46, 48, 50, 54, 56, 58, 59, 61, 62, 69, 71, 73,
                  75-77, 79-81, 85, 87, 89, 90, 93, 95, 98, 100, 102, 106,
                  108, 110, 111, 115, 117, 119, 123, 125, 127, 129-131, 133,
                  134, 136-138, 142, 144, 146, 148-150, 152, 153, 155-157,
                  160-171
    3    6 C      3, 5, 8, 9, 11, 13, 15, 17, 19, 23, 25, 28, 31, 35, 37, 40,
                  41, 43, 45, 47, 49, 51, 55, 57, 60, 63, 66, 70, 72, 74, 78,
                  82, 86, 88, 91, 92, 94, 96, 99, 101, 103, 107, 109, 112,
                  114, 118, 120, 124, 126, 128, 132, 135, 139, 143, 145, 147,
                  151, 154, 158
    4    8 O      20, 29, 30, 32, 52, 64, 65, 67, 83, 97, 104, 121, 140, 159

           -------------------------------------------------
          |                Calculation Setup                |
           -------------------------------------------------

          program call               : xtb /home/antonio_mesquita/Documentos/gmx_ISA_project/testes_arquivos_primeiros/gmx_ISA_testes/testes_qm_xtb/QM_analysis/QM_FRAMES_CAPPED/frame_3800ps/residues_pocket_capped_3800ps.xyz --gfn 2 --alpb water --chrg -2 --etemp 1500 --cycles 1000
          coordinate file            : /home/antonio_mesquita/Documentos/gmx_ISA_project/testes_arquivos_primeiros/gmx_ISA_testes/testes_qm_xtb/QM_analysis/QM_FRAMES_CAPPED/frame_3800ps/residues_pocket_capped_3800ps.xyz
          omp threads                :                    16


molecular fragmentation (1/2 indicates fragments):
111111111111111111111111111111112222222222222222222222222222222222222222
222222222222222222222222222222222222222222222222222222222222222222222222
222222222222222112222222222
# atoms in fragment 1/2:    34   137
 fragment masses (1/2) :      263.27      911.12
CMA distance (Bohr)    :  15.027
constraining FC (au)   :  0.0500

           -------------------------------------------------
          |                 G F N 2 - x T B                 |
           -------------------------------------------------

        Reference                      10.1021/acs.jctc.8b01176
      * Hamiltonian:
        H0-scaling (s, p, d)           1.850000    2.230000    2.230000
        zeta-weighting                 0.500000
      * Dispersion:
        s8                             2.700000
        a1                             0.520000
        a2                             5.000000
        s9                             5.000000
      * Repulsion:
        kExp                           1.500000    1.000000
        rExp                           1.000000
      * Coulomb:
        alpha                          2.000000
        third order                    shell-resolved
        anisotropic                    true
        a3                             3.000000
        a5                             4.000000
        cn-shift                       1.200000
        cn-exp                         4.000000
        max-rad                        5.000000

      * Solvation model:               ALPB
        Solvent                        water
        Parameter file                 internal GFN2-xTB/ALPB
        Dielectric constant                8.0200E+01
        Reference state                gsolv [1 M gas/solution]
        Free energy shift                  1.0808E-03 Eh       6.7819E-01 kcal/mol
        Temperature                        2.9815E+02 K
        Density                            1.0000E+00 kg/L
        Solvent mass                       1.8000E+01 g/mol
        Interaction kernel             P16
        Born radius scaling (c1)           1.4744E+00
        Born radii integrator          GBOBC
        Born offset                        0.0000E+00 a0       0.0000E+00 AA
        H-bond correction              true
        Ion screening                  false
        Surface tension                    1.0000E-05 Eh       1.5569E+01 dyn/cm
        Grid points                               230 per atom

          ...................................................
          :                      SETUP                      :
          :.................................................:
          :  # basis functions                 423          :
          :  # atomic orbitals                 423          :
          :  # shells                          255          :
          :  # electrons                       464          :
          :  max. iterations                   250          :
          :  Hamiltonian                  GFN2-xTB          :
          :  restarted?                      false          :
          :  GBSA solvation                   true          :
          :  PC potential                    false          :
          :  electronic temp.         1500.0000000     K    :
          :  accuracy                    1.0000000          :
          :  -> integral cutoff          0.2500000E+02      :
          :  -> integral neglect         0.1000000E-07      :
          :  -> SCF convergence          0.1000000E-05 Eh   :
          :  -> wf. convergence          0.1000000E-03 e    :
          :  Broyden damping             0.4000000          :
          :  net charge                         -2          :
          :  unpaired electrons                  0          :
          ...................................................

 iter      E             dE          RMSdq      gap      omega  full diag
   1   -262.8278889 -0.262828E+03  0.446E+00    1.77       0.0  T
   2   -263.3704410 -0.542552E+00  0.229E+00    0.90       1.0  T
   3   -263.3894265 -0.189855E-01  0.127E+00    1.71       1.0  T
   4   -263.4248518 -0.354253E-01  0.271E-01    1.03       1.0  T
   5   -263.4305298 -0.567796E-02  0.112E-01    1.17       1.0  T
   6   -263.4307957 -0.265914E-03  0.612E-02    1.13       1.0  T
   7   -263.4309361 -0.140337E-03  0.234E-02    1.13       1.0  T
   8   -263.4309546 -0.185518E-04  0.884E-03    1.14       1.0  T
   9   -263.4309573 -0.268705E-05  0.451E-03    1.13       1.7  T
  10   -263.4309580 -0.651815E-06  0.204E-03    1.13       3.8  T
  11   -263.4309581 -0.131834E-06  0.983E-04    1.13       7.8  T
  12   -263.4309581 -0.431056E-07  0.439E-04    1.13      17.4  T

   *** convergence criteria satisfied after 12 iterations ***

         #    Occupation            Energy/Eh            Energy/eV
      -------------------------------------------------------------
         1        2.0000           -0.7349818             -19.9999
       ...           ...                  ...                  ...
       226        1.9998           -0.3585554              -9.7568
       227        1.9988           -0.3497596              -9.5174
       228        1.9969           -0.3452092              -9.3936
       229        1.9966           -0.3446837              -9.3793
       230        1.9943           -0.3422395              -9.3128
       231        1.9937           -0.3418058              -9.3010
       232        1.9682           -0.3340137              -9.0890 (HOMO)
       233        0.0196           -0.2924894              -7.9590 (LUMO)
       234        0.0160           -0.2915124              -7.9325
       235        0.0079           -0.2881587              -7.8412
       236        0.0046           -0.2855820              -7.7711
       237        0.0022           -0.2820936              -7.6762
       ...           ...                  ...                  ...
       423                          0.6325658              17.2130
      -------------------------------------------------------------
                  HL-Gap            0.0415243 Eh            1.1299 eV
             Fermi-level           -0.3144208 Eh           -8.5558 eV

 SCC (total)                   0 d,  0 h,  0 min,  1.033 sec
 SCC setup                      ...        0 min,  0.005 sec (  0.530%)
 Dispersion                     ...        0 min,  0.013 sec (  1.298%)
 classical contributions        ...        0 min,  0.004 sec (  0.402%)
 integral evaluation            ...        0 min,  0.054 sec (  5.241%)
 iterations                     ...        0 min,  0.812 sec ( 78.609%)
 molecular gradient             ...        0 min,  0.138 sec ( 13.353%)
 printout                       ...        0 min,  0.006 sec (  0.565%)

         :::::::::::::::::::::::::::::::::::::::::::::::::::::
         ::                     SUMMARY                     ::
         :::::::::::::::::::::::::::::::::::::::::::::::::::::
         :: total energy            -260.179163908175 Eh    ::
         :: total w/o Gsasa/hb      -260.160746667632 Eh    ::
         :: gradient norm              0.245103592091 Eh/a0 ::
         :: HOMO-LUMO gap              1.129933853485 eV    ::
         ::.................................................::
         :: SCC energy              -263.423599706758 Eh    ::
         :: -> isotropic ES            0.945385051430 Eh    ::
         :: -> anisotropic ES          0.034672556379 Eh    ::
         :: -> anisotropic XC          0.112627224881 Eh    ::
         :: -> dispersion             -0.175562751672 Eh    ::
         :: -> Gsolv                  -0.332857454471 Eh    ::
         ::    -> Gelec               -0.314440213928 Eh    ::
         ::    -> Gsasa                0.014054453139 Eh    ::
         ::    -> Ghb                 -0.033552453380 Eh    ::
         ::    -> Gshift               0.001080759698 Eh    ::
         :: repulsion energy           3.244435798584 Eh    ::
         :: add. restraining           0.000000000000 Eh    ::
         :: total charge              -2.000000000000 e     ::
         :::::::::::::::::::::::::::::::::::::::::::::::::::::

           -------------------------------------------------
          |                Property Printout                |
           -------------------------------------------------

    * Orbital Energies and Occupations

         #    Occupation            Energy/Eh            Energy/eV
      -------------------------------------------------------------
         1        2.0000           -0.7349818             -19.9999
       ...           ...                  ...                  ...
       220        2.0000           -0.3848456             -10.4722
       221        2.0000           -0.3809991             -10.3675
       222        2.0000           -0.3801381             -10.3441
       223        2.0000           -0.3766556             -10.2493
       224        1.9999           -0.3644372              -9.9168
       225        1.9999           -0.3636074              -9.8943
       226        1.9998           -0.3585554              -9.7568
       227        1.9988           -0.3497596              -9.5174
       228        1.9969           -0.3452092              -9.3936
       229        1.9966           -0.3446837              -9.3793
       230        1.9943           -0.3422395              -9.3128
       231        1.9937           -0.3418058              -9.3010
       232        1.9682           -0.3340137              -9.0890 (HOMO)
       233        0.0196           -0.2924894              -7.9590 (LUMO)
       234        0.0160           -0.2915124              -7.9325
       235        0.0079           -0.2881587              -7.8412
       236        0.0046           -0.2855820              -7.7711
       237        0.0022           -0.2820936              -7.6762
       238        0.0015           -0.2801641              -7.6237
       239                         -0.2290707              -6.2333
       240                         -0.2264554              -6.1622
       241                         -0.2248978              -6.1198
       242                         -0.2233731              -6.0783
       243                         -0.2227730              -6.0620
       ...                                ...                  ...
       423                          0.6325658              17.2130
      -------------------------------------------------------------
                  HL-Gap            0.0415243 Eh            1.1299 eV
             Fermi-level           -0.3144208 Eh           -8.5558 eV

     #   Z          covCN         q      C6AA      α(0)
     1   7 N        2.643    -0.370    29.559     8.075
     2   1 H        0.860     0.157     1.356     1.824
     3   6 C        3.788     0.029    20.101     6.386
     4   1 H        0.925     0.063     2.159     2.298
     5   6 C        3.823    -0.072    21.854     6.652
     6   1 H        0.924     0.072     2.068     2.249
     7   1 H        0.925     0.040     2.455     2.450
     8   6 C        2.958     0.007    27.859     8.657
     9   6 C        2.917    -0.045    29.109     8.847
    10   1 H        0.925     0.056     2.251     2.346
    11   6 C        2.908    -0.037    28.908     8.816
    12   1 H        0.925     0.049     2.334     2.389
    13   6 C        2.920    -0.037    28.930     8.820
    14   1 H        0.925     0.035     2.517     2.481
    15   6 C        2.902    -0.036    28.905     8.815
    16   1 H        0.926     0.028     2.610     2.526
    17   6 C        2.922    -0.036    28.904     8.816
    18   1 H        0.925     0.003     3.002     2.709
    19   6 C        2.751     0.274    22.372     7.745
    20   8 O        0.858    -0.519    24.212     6.597
    21   7 N        2.694    -0.166    24.599     7.366
    22   1 H        0.860     0.222     1.001     1.567
    23   6 C        3.792     0.041    19.900     6.353
    24   1 H        0.924     0.082     1.957     2.188
    25   6 C        3.816    -0.078    21.981     6.673
    26   1 H        0.925     0.034     2.526     2.485
    27   1 H        0.925     0.049     2.336     2.390
    28   6 C        2.687     0.365    20.816     7.467
    29   8 O        0.856    -0.636    27.032     6.971
    30   8 O        0.857    -0.664    27.752     7.063
    31   6 C        2.760     0.209    23.574     7.951
    32   8 O        0.856    -0.372    21.132     6.163
    33   7 N        2.635    -0.367    29.465     8.062
    34   1 H        0.860     0.165     1.303     1.788
    35   6 C        3.783     0.034    20.018     6.373
    36   1 H        0.924     0.088     1.897     2.154
    37   6 C        3.811    -0.074    21.913     6.663
    38   1 H        0.924     0.049     2.337     2.390
    39   1 H        0.924     0.072     2.068     2.249
    40   6 C        2.955     0.011    27.781     8.645
    41   6 C        2.926    -0.042    29.046     8.838
    42   1 H        0.925     0.033     2.539     2.492
    43   6 C        2.903    -0.041    29.007     8.831
    44   1 H        0.926     0.038     2.472     2.459
    45   6 C        2.917    -0.038    28.939     8.822
    46   1 H        0.925     0.025     2.653     2.547
    47   6 C        2.905    -0.038    28.956     8.823
    48   1 H        0.926     0.041     2.436     2.441
    49   6 C        2.919    -0.044    29.086     8.844
    50   1 H        0.925     0.044     2.397     2.421
    51   6 C        2.757     0.207    23.606     7.956
    52   8 O        0.856    -0.382    21.329     6.192
    53   7 N        2.633    -0.380    29.819     8.110
    54   1 H        0.860     0.165     1.304     1.789
    55   6 C        3.786     0.027    20.139     6.392
    56   1 H        0.925     0.057     2.239     2.340
    57   6 C        3.806    -0.045    21.383     6.583
    58   1 H        0.925     0.022     2.696     2.568
    59   1 H        0.925     0.034     2.536     2.490
    60   6 C        3.801    -0.098    22.375     6.735
    61   1 H        0.925     0.054     2.275     2.359
    62   1 H        0.924     0.039     2.461     2.453
    63   6 C        2.687     0.364    20.832     7.469
    64   8 O        0.857    -0.669    27.873     7.078
    65   8 O        0.857    -0.671    27.942     7.087
    66   6 C        2.745     0.259    22.630     7.789
    67   8 O        0.860    -0.540    24.677     6.660
    68   7 N        2.686    -0.150    24.256     7.315
    69   1 H        0.860     0.209     1.060     1.613
    70   6 C        3.792     0.030    20.073     6.380
    71   1 H        0.924     0.091     1.873     2.140
    72   6 C        3.854    -0.016    20.817     6.489
    73   1 H        0.924     0.062     2.178     2.308
    74   6 C        3.761    -0.110    22.641     6.783
    75   1 H        0.924     0.047     2.356     2.401
    76   1 H        0.925     0.037     2.486     2.465
    77   1 H        0.924     0.038     2.479     2.462
    78   6 C        3.757    -0.120    22.860     6.817
    79   1 H        0.925     0.066     2.132     2.283
    80   1 H        0.926     0.055     2.264     2.353
    81   1 H        0.923     0.042     2.429     2.437
    82   6 C        2.760     0.198    23.777     7.985
    83   8 O        0.856    -0.379    21.268     6.183
    84   7 N        2.638    -0.377    29.737     8.099
    85   1 H        0.860     0.161     1.329     1.806
    86   6 C        3.786     0.046    19.815     6.340
    87   1 H        0.925     0.076     2.019     2.222
    88   6 C        3.826    -0.066    21.736     6.634
    89   1 H        0.925     0.058     2.217     2.328
    90   1 H        0.926     0.057     2.234     2.337
    91   6 C        2.962    -0.001    28.050     8.687
    92   6 C        2.909    -0.044    29.088     8.844
    93   1 H        0.925     0.047     2.362     2.403
    94   6 C        2.909    -0.074    29.849     8.959
    95   1 H        0.926     0.038     2.475     2.460
    96   6 C        2.839     0.145    24.841     8.168
    97   8 O        1.660    -0.465    22.147     6.353
    98   1 H        0.806     0.365     0.554     1.169
    99   6 C        2.905    -0.058    29.436     8.896
   100   1 H        0.926     0.049     2.332     2.388
   101   6 C        2.917    -0.045    29.115     8.848
   102   1 H        0.926     0.049     2.329     2.386
   103   6 C        2.764     0.203    23.692     7.971
   104   8 O        0.856    -0.396    21.605     6.232
   105   7 N        2.641    -0.356    29.173     8.022
   106   1 H        0.860     0.170     1.275     1.769
   107   6 C        3.787     0.046    19.819     6.341
   108   1 H        0.924     0.056     2.244     2.343
   109   6 C        3.812    -0.068    21.790     6.644
   110   1 H        0.924     0.054     2.269     2.356
   111   1 H        0.924     0.059     2.211     2.325
   112   6 C        3.196     0.044    26.508     8.393
   113   7 N        1.879    -0.326    29.305     8.025
   114   6 C        3.120     0.087    25.900     8.335
   115   1 H        0.925     0.038     2.470     2.458
   116   7 N        2.804    -0.101    23.208     7.155
   117   1 H        0.860     0.222     0.999     1.566
   118   6 C        2.991    -0.034    28.837     8.809
   119   1 H        0.926     0.056     2.251     2.346
   120   6 C        2.761     0.211    23.534     7.944
   121   8 O        0.857    -0.361    20.917     6.132
   122   7 N        2.633    -0.379    29.793     8.107
   123   1 H        0.861     0.171     1.265     1.762
   124   6 C        3.789     0.025    20.173     6.397
   125   1 H        0.925     0.061     2.187     2.312
   126   6 C        3.853    -0.029    21.057     6.527
   127   1 H        0.924     0.033     2.545     2.495
   128   6 C        3.757    -0.106    22.580     6.775
   129   1 H        0.925     0.035     2.523     2.484
   130   1 H        0.924     0.052     2.294     2.368
   131   1 H        0.924     0.020     2.731     2.585
   132   6 C        3.809    -0.057    21.588     6.614
   133   1 H        0.924     0.022     2.708     2.573
   134   1 H        0.925     0.027     2.631     2.536
   135   6 C        3.750    -0.117    22.801     6.810
   136   1 H        0.924     0.033     2.544     2.494
   137   1 H        0.925     0.060     2.204     2.322
   138   1 H        0.925     0.043     2.411     2.428
   139   6 C        2.753     0.274    22.373     7.745
   140   8 O        0.861    -0.524    24.320     6.612
   141   7 N        2.690    -0.165    24.571     7.362
   142   1 H        0.860     0.229     0.970     1.543
   143   6 C        3.805     0.031    20.047     6.374
   144   1 H        0.924     0.085     1.929     2.172
   145   6 C        3.853    -0.020    20.899     6.502
   146   1 H        0.923     0.072     2.067     2.248
   147   6 C        3.764    -0.125    22.932     6.826
   148   1 H        0.924     0.044     2.401     2.423
   149   1 H        0.925     0.058     2.220     2.330
   150   1 H        0.924     0.056     2.251     2.346
   151   6 C        3.809    -0.053    21.518     6.603
   152   1 H        0.924     0.015     2.805     2.619
   153   1 H        0.924     0.035     2.513     2.479
   154   6 C        3.749    -0.106    22.584     6.778
   155   1 H        0.924     0.026     2.640     2.541
   156   1 H        0.925     0.044     2.401     2.423
   157   1 H        0.924     0.045     2.380     2.412
   158   6 C        2.759     0.204    23.661     7.966
   159   8 O        0.857    -0.368    21.052     6.152
   160   1 H        0.860     0.187     1.174     1.697
   161   1 H        0.923     0.062     2.174     2.306
   162   1 H        0.860     0.183     1.200     1.716
   163   1 H        0.923     0.039     2.469     2.457
   164   1 H        0.860     0.187     1.177     1.700
   165   1 H        0.923     0.080     1.984     2.203
   166   1 H        0.860     0.167     1.293     1.781
   167   1 H        0.923     0.068     2.107     2.270
   168   1 H        0.860     0.158     1.351     1.821
   169   1 H        0.923     0.062     2.178     2.308
   170   1 H        0.860     0.175     1.243     1.746
   171   1 H        0.923     0.078     1.996     2.209

 Mol. C6AA /au·bohr⁶  :     290547.853920
 Mol. C8AA /au·bohr⁸  :    6563599.059908
 Mol. α(0) /au        :        820.200948


Wiberg/Mayer (AO) data.
largest (>0.10) Wiberg bond orders for each atom

 ---------------------------------------------------------------------------
     #   Z sym  total        # sym  WBO       # sym  WBO       # sym  WBO
 ---------------------------------------------------------------------------
     1   7 N    3.014 --     3 C    1.027     2 H    0.957   160 H    0.950
     2   1 H    0.975 --     1 N    0.957
     3   6 C    3.979 --     1 N    1.027     4 H    0.954     5 C    0.953
                            19 C    0.937
     4   1 H    0.995 --     3 C    0.954
     5   6 C    3.989 --     8 C    1.011     7 H    0.965     6 H    0.963
                             3 C    0.953
     6   1 H    0.994 --     5 C    0.963
     7   1 H    0.998 --     5 C    0.965
     8   6 C    3.986 --     9 C    1.416    17 C    1.404     5 C    1.011
                            13 C    0.109
     9   6 C    3.988 --    11 C    1.437     8 C    1.416    10 H    0.966
                            15 C    0.112
    10   1 H    0.997 --     9 C    0.966
    11   6 C    3.989 --    13 C    1.447     9 C    1.437    12 H    0.969
                            17 C    0.109
    12   1 H    0.997 --    11 C    0.969
    13   6 C    3.984 --    11 C    1.447    15 C    1.425    14 H    0.971
                             8 C    0.109
    14   1 H    0.998 --    13 C    0.971
    15   6 C    3.990 --    17 C    1.449    13 C    1.425    16 H    0.972
                             9 C    0.112
    16   1 H    0.999 --    15 C    0.972
    17   6 C    3.991 --    15 C    1.449     8 C    1.404    18 H    0.970
                            11 C    0.109
    18   1 H    1.000 --    17 C    0.970
    19   6 C    3.933 --    20 O    1.626    21 N    1.288     3 C    0.937
    20   8 O    1.935 --    19 C    1.626    21 N    0.191
    21   7 N    3.462 --    19 C    1.288    23 C    0.988    22 H    0.913
                            20 O    0.191
    22   1 H    0.951 --    21 N    0.913
    23   6 C    3.975 --    31 C    0.999    21 N    0.988    24 H    0.944
                            25 C    0.942
    24   1 H    0.993 --    23 C    0.944
    25   6 C    3.981 --    26 H    0.974    27 H    0.952    23 C    0.942
                            28 C    0.932
    26   1 H    0.999 --    25 C    0.974
    27   1 H    0.997 --    25 C    0.952
    28   6 C    3.938 --    29 O    1.507    30 O    1.476    25 C    0.932
    29   8 O    1.802 --    28 C    1.507    30 O    0.218
    30   8 O    1.766 --    28 C    1.476    29 O    0.218
    31   6 C    3.880 --    32 O    1.873    23 C    0.999   161 H    0.942
    32   8 O    2.032 --    31 C    1.873
    33   7 N    3.024 --    35 C    1.032    34 H    0.956   162 H    0.952
    34   1 H    0.973 --    33 N    0.956
    35   6 C    3.985 --    33 N    1.032    51 C    0.988    37 C    0.939
                            36 H    0.931
    36   1 H    0.992 --    35 C    0.931
    37   6 C    3.990 --    40 C    1.010    38 H    0.972    39 H    0.961
                            35 C    0.939
    38   1 H    0.997 --    37 C    0.972
    39   1 H    0.995 --    37 C    0.961
    40   6 C    3.987 --    49 C    1.419    41 C    1.408    37 C    1.010
                            45 C    0.107
    41   6 C    3.990 --    43 C    1.446    40 C    1.408    42 H    0.969
                            47 C    0.112
    42   1 H    0.999 --    41 C    0.969
    43   6 C    3.990 --    41 C    1.446    45 C    1.431    44 H    0.971
                            49 C    0.114
    44   1 H    0.998 --    43 C    0.971
    45   6 C    3.990 --    47 C    1.447    43 C    1.431    46 H    0.972
                            40 C    0.107
    46   1 H    0.999 --    45 C    0.972
    47   6 C    3.991 --    45 C    1.447    49 C    1.433    48 H    0.971
                            41 C    0.112
    48   1 H    0.998 --    47 C    0.971
    49   6 C    3.990 --    47 C    1.433    40 C    1.419    50 H    0.969
                            43 C    0.114
    50   1 H    0.998 --    49 C    0.969
    51   6 C    3.887 --    52 O    1.882    35 C    0.988   163 H    0.938
    52   8 O    2.043 --    51 C    1.882
    53   7 N    3.028 --    55 C    1.028    54 H    0.954   164 H    0.951
    54   1 H    0.973 --    53 N    0.954
    55   6 C    3.984 --    53 N    1.028    57 C    0.976    56 H    0.951
                            66 C    0.934
    56   1 H    0.997 --    55 C    0.951
    57   6 C    3.992 --    60 C    1.005    55 C    0.976    58 H    0.976
                            59 H    0.973
    58   1 H    0.999 --    57 C    0.976
    59   1 H    0.999 --    57 C    0.973
    60   6 C    3.989 --    57 C    1.005    62 H    0.974    61 H    0.957
                            63 C    0.939
    61   1 H    0.997 --    60 C    0.957
    62   1 H    0.998 --    60 C    0.974
    63   6 C    3.930 --    64 O    1.481    65 O    1.481    60 C    0.939
    64   8 O    1.764 --    63 C    1.481    65 O    0.209
    65   8 O    1.761 --    63 C    1.481    64 O    0.209
    66   6 C    3.940 --    67 O    1.603    68 N    1.312    55 C    0.934
    67   8 O    1.902 --    66 C    1.603    68 N    0.193
    68   7 N    3.485 --    66 C    1.312    70 C    0.984    69 H    0.918
                            67 O    0.193
    69   1 H    0.956 --    68 N    0.918
    70   6 C    3.967 --    82 C    0.995    68 N    0.984    72 C    0.937
                            71 H    0.933
    71   1 H    0.991 --    70 C    0.933
    72   6 C    3.984 --    78 C    1.008    74 C    1.004    73 H    0.963
                            70 C    0.937
    73   1 H    0.996 --    72 C    0.963
    74   6 C    3.995 --    72 C    1.004    77 H    0.987    76 H    0.987
                            75 H    0.982
    75   1 H    0.996 --    74 C    0.982
    76   1 H    0.999 --    74 C    0.987
    77   1 H    0.999 --    74 C    0.987
    78   6 C    3.991 --    72 C    1.008    81 H    0.985    80 H    0.984
                            79 H    0.982
    79   1 H    0.995 --    78 C    0.982
    80   1 H    0.997 --    78 C    0.984
    81   1 H    0.998 --    78 C    0.985
    82   6 C    3.876 --    83 O    1.870    70 C    0.995   165 H    0.935
    83   8 O    2.026 --    82 C    1.870
    84   7 N    3.008 --    86 C    1.027   166 H    0.956    85 H    0.955
    85   1 H    0.974 --    84 N    0.955
    86   6 C    3.984 --    84 N    1.027   103 C    0.982    88 C    0.947
                            87 H    0.934
    87   1 H    0.994 --    86 C    0.934
    88   6 C    3.988 --    91 C    1.008    90 H    0.968    89 H    0.961
                            86 C    0.947
    89   1 H    0.996 --    88 C    0.961
    90   1 H    0.996 --    88 C    0.968
    91   6 C    3.987 --    92 C    1.408   101 C    1.399    88 C    1.008
    92   6 C    3.989 --    94 C    1.451    91 C    1.408    93 H    0.968
                            99 C    0.108
    93   1 H    0.998 --    92 C    0.968
    94   6 C    3.985 --    92 C    1.451    96 C    1.365    95 H    0.967
                           101 C    0.102
    95   1 H    0.998 --    94 C    0.967
    96   6 C    3.927 --    94 C    1.365    99 C    1.358    97 O    1.070
    97   8 O    2.074 --    96 C    1.070    98 H    0.844
    98   1 H    0.866 --    97 O    0.844
    99   6 C    3.986 --   101 C    1.458    96 C    1.358   100 H    0.968
                            92 C    0.108
   100   1 H    0.997 --    99 C    0.968
   101   6 C    3.985 --    99 C    1.458    91 C    1.399   102 H    0.963
                            94 C    0.102
   102   1 H    0.997 --   101 C    0.963
   103   6 C    3.874 --   104 O    1.874    86 C    0.982   167 H    0.935
   104   8 O    2.030 --   103 C    1.874
   105   7 N    3.031 --   107 C    1.014   168 H    0.962   106 H    0.933
   106   1 H    0.971 --   105 N    0.933
   107   6 C    3.986 --   105 N    1.014   120 C    0.985   108 H    0.963
                           109 C    0.938
   108   1 H    0.996 --   107 C    0.963
   109   6 C    3.989 --   112 C    1.012   110 H    0.965   111 H    0.963
                           107 C    0.938
   110   1 H    0.997 --   109 C    0.965
   111   1 H    0.996 --   109 C    0.963
   112   6 C    3.972 --   118 C    1.567   113 N    1.265   109 C    1.012
   113   7 N    2.991 --   114 C    1.526   112 C    1.265   116 N    0.108
   114   6 C    3.957 --   113 N    1.526   116 N    1.296   115 H    0.963
                           118 C    0.116
   115   1 H    0.998 --   114 C    0.963
   116   7 N    3.595 --   114 C    1.296   118 C    1.201   117 H    0.922
                           113 N    0.108
   117   1 H    0.950 --   116 N    0.922
   118   6 C    3.937 --   112 C    1.567   116 N    1.201   119 H    0.965
                           114 C    0.116
   119   1 H    0.997 --   118 C    0.965
   120   6 C    3.876 --   121 O    1.874   107 C    0.985   169 H    0.939
   121   8 O    2.073 --   120 C    1.874
   122   7 N    3.001 --   124 C    1.021   170 H    0.954   123 H    0.934
   123   1 H    0.971 --   122 N    0.934
   124   6 C    3.980 --   122 N    1.021   125 H    0.954   126 C    0.952
                           139 C    0.949
   125   1 H    0.994 --   124 C    0.954
   126   6 C    3.988 --   128 C    1.006   132 C    0.991   127 H    0.968
                           124 C    0.952
   127   1 H    0.998 --   126 C    0.968
   128   6 C    3.995 --   126 C    1.006   129 H    0.986   130 H    0.982
                           131 H    0.980
   129   1 H    0.999 --   128 C    0.986
   130   1 H    0.997 --   128 C    0.982
   131   1 H    1.000 --   128 C    0.980
   132   6 C    3.996 --   135 C    1.017   126 C    0.991   134 H    0.978
                           133 H    0.974
   133   1 H    1.000 --   132 C    0.974
   134   1 H    0.999 --   132 C    0.978
   135   6 C    3.991 --   132 C    1.017   138 H    0.987   136 H    0.982
                           137 H    0.980
   136   1 H    0.999 --   135 C    0.982
   137   1 H    0.996 --   135 C    0.980
   138   1 H    0.998 --   135 C    0.987
   139   6 C    3.944 --   140 O    1.609   141 N    1.313   124 C    0.949
   140   8 O    1.916 --   139 C    1.609   141 N    0.193
   141   7 N    3.478 --   139 C    1.313   143 C    0.978   142 H    0.887
                           140 O    0.193
   142   1 H    0.948 --   141 N    0.887
   143   6 C    3.963 --   141 N    0.978   158 C    0.978   144 H    0.948
                           145 C    0.946
   144   1 H    0.992 --   143 C    0.948
   145   6 C    3.985 --   147 C    1.004   151 C    0.998   146 H    0.948
                           143 C    0.946
   146   1 H    0.995 --   145 C    0.948
   147   6 C    3.991 --   145 C    1.004   149 H    0.984   150 H    0.981
                           148 H    0.980
Note: The following floating-point exceptions are signalling: IEEE_UNDERFLOW_FLAG IEEE_DENORMAL
normal termination of xtb
   148   1 H    0.998 --   147 C    0.980
   149   1 H    0.996 --   147 C    0.984
   150   1 H    0.996 --   147 C    0.981
   151   6 C    3.994 --   154 C    1.013   145 C    0.998   153 H    0.975
                           152 H    0.968
   152   1 H    1.000 --   151 C    0.968
   153   1 H    0.998 --   151 C    0.975
   154   6 C    3.993 --   151 C    1.013   157 H    0.987   156 H    0.985
                           155 H    0.984
   155   1 H    0.999 --   154 C    0.984
   156   1 H    0.998 --   154 C    0.985
   157   1 H    0.998 --   154 C    0.987
   158   6 C    3.876 --   159 O    1.883   143 C    0.978   171 H    0.936
   159   8 O    2.050 --   158 C    1.883
   160   1 H    0.965 --     1 N    0.950
   161   1 H    0.995 --    31 C    0.942
   162   1 H    0.966 --    33 N    0.952
   163   1 H    0.998 --    51 C    0.938
   164   1 H    0.965 --    53 N    0.951
   165   1 H    0.993 --    82 C    0.935
   166   1 H    0.972 --    84 N    0.956
   167   1 H    0.995 --   103 C    0.935
   168   1 H    0.975 --   105 N    0.962
   169   1 H    0.996 --   120 C    0.939
   170   1 H    0.969 --   122 N    0.954
   171   1 H    0.993 --   158 C    0.936
 ---------------------------------------------------------------------------

Topologies differ in total number of bonds
Writing topology from bond orders to xtbtopo.mol

molecular dipole:
                 x           y           z       tot (Debye)
 q only:      -68.673     -30.315    -219.223
   full:      -68.476     -29.939    -218.355     586.610
molecular quadrupole (traceless):
                xx          xy          yy          xz          yz          zz
 q only:    10048.613   -1603.776   12757.537  -11512.971   -5316.508  -22806.150
  q+dip:     9978.845   -1566.152   12664.864  -11421.889   -5260.595  -22643.709
   full:     9980.405   -1567.978   12669.033  -11420.310   -5258.089  -22649.438


           -------------------------------------------------
          | TOTAL ENERGY             -260.179163908175 Eh   |
          | GRADIENT NORM               0.245103592091 Eh/α |
          | HOMO-LUMO GAP               1.129933853485 eV   |
           -------------------------------------------------

------------------------------------------------------------------------
 * finished run on 2026/01/05 at 09:07:26.437     
------------------------------------------------------------------------
 total:
 * wall-time:     0 d,  0 h,  0 min,  1.089 sec
 *  cpu-time:     0 d,  0 h,  0 min, 15.716 sec
 * ratio c/w:    14.438 speedup
 SCF:
 * wall-time:     0 d,  0 h,  0 min,  1.036 sec
 *  cpu-time:     0 d,  0 h,  0 min, 14.944 sec
 * ratio c/w:    14.418 speedup

