      -----------------------------------------------------------      
     |                   =====================                   |     
     |                           x T B                           |     
     |                   =====================                   |     
     |                         S. Grimme                         |     
     |          Mulliken Center for Theoretical Chemistry        |     
     |                    University of Bonn                     |     
      -----------------------------------------------------------      

   * xtb version 6.7.1 (edcfbbe) compiled by 'conda@c0858423619e' on 2025-09-04

   xtb is free software: you can redistribute it and/or modify it under
   the terms of the GNU Lesser General Public License as published by
   the Free Software Foundation, either version 3 of the License, or
   (at your option) any later version.
   
   xtb is distributed in the hope that it will be useful,
   but WITHOUT ANY WARRANTY; without even the implied warranty of
   MERCHANTABILITY or FITNESS FOR A PARTICULAR PURPOSE.  See the
   GNU Lesser General Public License for more details.
   
   Cite this work as:
   * C. Bannwarth, E. Caldeweyher, S. Ehlert, A. Hansen, P. Pracht,
     J. Seibert, S. Spicher, S. Grimme, WIREs Comput. Mol. Sci., 2020, 11,
     e01493. DOI: 10.1002/wcms.1493
   
   for GFN2-xTB:
   * C. Bannwarth, S. Ehlert and S. Grimme., J. Chem. Theory Comput., 2019,
     15, 1652-1671. DOI: 10.1021/acs.jctc.8b01176
   for GFN1-xTB:
   * S. Grimme, C. Bannwarth, P. Shushkov, J. Chem. Theory Comput., 2017,
     13, 1989-2009. DOI: 10.1021/acs.jctc.7b00118
   for GFN0-xTB:
   * P. Pracht, E. Caldeweyher, S. Ehlert, S. Grimme, ChemRxiv, 2019, preprint.
     DOI: 10.26434/chemrxiv.8326202.v1
   for GFN-FF:
   * S. Spicher and S. Grimme, Angew. Chem. Int. Ed., 2020, 59, 15665-15673.
     DOI: 10.1002/anie.202004239
   
   for ALPB and GBSA implicit solvation:
   * S. Ehlert, M. Stahn, S. Spicher, S. Grimme, J. Chem. Theory Comput.,
     2021, 17, 4250-4261. DOI: 10.1021/acs.jctc.1c00471
   
   for ddCOSMO and CPCM-X implicit solvation:
   * M. Stahn, S. Ehlert, S. Grimme, J. Phys. Chem. A,
     2023, XX, XXXX-XXXX. DOI: 10.1021/acs.jpca.3c04382
   
   for DFT-D4:
   * E. Caldeweyher, C. Bannwarth and S. Grimme, J. Chem. Phys., 2017,
     147, 034112. DOI: 10.1063/1.4993215
   * E. Caldeweyher, S. Ehlert, A. Hansen, H. Neugebauer, S. Spicher,
     C. Bannwarth and S. Grimme, J. Chem. Phys., 2019, 150, 154122.
     DOI: 10.1063/1.5090222
   * E. Caldeweyher, J.-M. Mewes, S. Ehlert and S. Grimme, Phys. Chem. Chem. Phys.
     2020, 22, 8499-8512. DOI: 10.1039/D0CP00502A
   
   for sTDA-xTB:
   * S. Grimme and C. Bannwarth, J. Chem. Phys., 2016, 145, 054103.
     DOI: 10.1063/1.4959605
   
   in the mass-spec context:
   * V. Asgeirsson, C. Bauer and S. Grimme, Chem. Sci., 2017, 8, 4879.
     DOI: 10.1039/c7sc00601b
   * J. Koopman and S. Grimme, ACS Omega 2019, 4, 12, 15120-15133.
     DOI: 10.1021/acsomega.9b02011
   
   for metadynamics refer to:
   * S. Grimme, J. Chem. Theory Comput., 2019, 155, 2847-2862
     DOI: 10.1021/acs.jctc.9b00143
   
   for SPH calculations refer to:
   * S. Spicher and S. Grimme, J. Chem. Theory Comput., 2021, 17, 1701-1714
     DOI: 10.1021/acs.jctc.0c01306
   
   for ONIOM refer to:
   * C. Plett, A. Katbashev, S. Ehlert, S. Grimme, M. Bursch,
     Phys. Chem. Chem. Phys., 2023, 25, 17860-17868. DOI: 10.1039/D3CP02178E
   
   for DIPRO refer to:
   * J. Kohn, N. Gildemeister, S. Grimme, D. Fazzi, A. Hansen,
     J. Chem. Phys., 2023, just accepted.
   
   for PTB refer to:
   * S. Grimme, M. Mueller, A. Hansen, J. Chem. Phys., 2023, 158, 124111.
     DOI: 10.1063/5.0137838
   
   with help from (in alphabetical order)
   P. Atkinson, C. Bannwarth, F. Bohle, G. Brandenburg, E. Caldeweyher
   M. Checinski, S. Dohm, S. Ehlert, S. Ehrlich, I. Gerasimov, C. Hölzer
   A. Katbashev, J. Kohn, J. Koopman, C. Lavigne, S. Lehtola, F. März, M. Müller,
   F. Musil, H. Neugebauer, J. Pisarek, C. Plett, P. Pracht, F. Pultar,
   J. Seibert, P. Shushkov, S. Spicher, M. Stahn, M. Steiner, T. Strunk,
   J. Stückrath, T. Rose, and J. Unsleber
   
 * started run on 2026/01/05 at 09:07:17.942     
   ID    Z sym.   atoms
    1    6 C      1, 3-11, 14-16, 18, 20, 21, 24-29, 32
    2    7 N      2, 22
    3    8 O      12, 13, 17, 30, 31
    4   16 S      19, 23
    5    1 H      33-59

           -------------------------------------------------
          |                Calculation Setup                |
           -------------------------------------------------

          program call               : xtb /home/antonio_mesquita/Documentos/gmx_ISA_project/testes_arquivos_primeiros/gmx_ISA_testes/testes_qm_xtb/QM_analysis/QM_FRAMES_CAPPED/frame_3400ps/ligand_isolated_3400ps.xyz --gfn 2 --alpb water --chrg 1 --etemp 1500 --cycles 1000
          coordinate file            : /home/antonio_mesquita/Documentos/gmx_ISA_project/testes_arquivos_primeiros/gmx_ISA_testes/testes_qm_xtb/QM_analysis/QM_FRAMES_CAPPED/frame_3400ps/ligand_isolated_3400ps.xyz
          omp threads                :                    16


           -------------------------------------------------
          |                 G F N 2 - x T B                 |
           -------------------------------------------------

        Reference                      10.1021/acs.jctc.8b01176
      * Hamiltonian:
        H0-scaling (s, p, d)           1.850000    2.230000    2.230000
        zeta-weighting                 0.500000
      * Dispersion:
        s8                             2.700000
        a1                             0.520000
        a2                             5.000000
        s9                             5.000000
      * Repulsion:
        kExp                           1.500000    1.000000
        rExp                           1.000000
      * Coulomb:
        alpha                          2.000000
        third order                    shell-resolved
        anisotropic                    true
        a3                             3.000000
        a5                             4.000000
        cn-shift                       1.200000
        cn-exp                         4.000000
        max-rad                        5.000000

      * Solvation model:               ALPB
        Solvent                        water
        Parameter file                 internal GFN2-xTB/ALPB
        Dielectric constant                8.0200E+01
        Reference state                gsolv [1 M gas/solution]
        Free energy shift                  1.0808E-03 Eh       6.7819E-01 kcal/mol
        Temperature                        2.9815E+02 K
        Density                            1.0000E+00 kg/L
        Solvent mass                       1.8000E+01 g/mol
        Interaction kernel             P16
        Born radius scaling (c1)           1.4744E+00
        Born radii integrator          GBOBC
        Born offset                        0.0000E+00 a0       0.0000E+00 AA
        H-bond correction              true
        Ion screening                  false
        Surface tension                    1.0000E-05 Eh       1.5569E+01 dyn/cm
        Grid points                               230 per atom

          ...................................................
          :                      SETUP                      :
          :.................................................:
          :  # basis functions                 167          :
          :  # atomic orbitals                 165          :
          :  # shells                           93          :
          :  # electrons                       170          :
          :  max. iterations                   250          :
          :  Hamiltonian                  GFN2-xTB          :
          :  restarted?                      false          :
          :  GBSA solvation                   true          :
          :  PC potential                    false          :
          :  electronic temp.         1500.0000000     K    :
          :  accuracy                    1.0000000          :
          :  -> integral cutoff          0.2500000E+02      :
          :  -> integral neglect         0.1000000E-07      :
          :  -> SCF convergence          0.1000000E-05 Eh   :
          :  -> wf. convergence          0.1000000E-03 e    :
          :  Broyden damping             0.4000000          :
          :  net charge                          1          :
          :  unpaired electrons                  0          :
          ...................................................

 iter      E             dE          RMSdq      gap      omega  full diag
   1    -96.2331572 -0.962332E+02  0.500E+00    0.90       0.0  T
   2    -96.2711019 -0.379447E-01  0.353E+00    0.29       1.0  T
   3    -96.3153194 -0.442175E-01  0.267E+00    1.54       1.0  T
   4    -96.4128289 -0.975095E-01  0.137E+00    0.58       1.0  T
   5    -96.3951694  0.176595E-01  0.115E+00    0.96       1.0  T
   6    -96.4365506 -0.413812E-01  0.225E-01    0.38       1.0  T
   7    -96.4370240 -0.473391E-03  0.112E-01    0.34       1.0  T
   8    -96.4371286 -0.104630E-03  0.688E-02    0.37       1.0  T
   9    -96.4371809 -0.522995E-04  0.299E-02    0.35       1.0  T
  10    -96.4371888 -0.790894E-05  0.220E-02    0.37       1.0  T
  11    -96.4371935 -0.470287E-05  0.154E-02    0.36       1.0  T
  12    -96.4371987 -0.517717E-05  0.594E-03    0.36       2.2  T
  13    -96.4371993 -0.615181E-06  0.116E-03    0.36      11.2  T
  14    -96.4371994 -0.132420E-07  0.546E-04    0.36      23.9  T
  15    -96.4371994 -0.315939E-08  0.300E-04    0.36      43.3  T

   *** convergence criteria satisfied after 15 iterations ***

         #    Occupation            Energy/Eh            Energy/eV
      -------------------------------------------------------------
         1        2.0000           -0.8014915             -21.8097
       ...           ...                  ...                  ...
        79        1.9993           -0.4326870             -11.7740
        80        1.9979           -0.4273138             -11.6278
        81        1.9957           -0.4238467             -11.5335
        82        1.9850           -0.4178966             -11.3715
        83        1.9729           -0.4150449             -11.2939
        84        1.9715           -0.4148053             -11.2874
        85        1.6406           -0.4018947             -10.9361 (HOMO)
        86        0.4380           -0.3886416             -10.5755 (LUMO)
        87                         -0.2863256              -7.7913
        88                         -0.2633631              -7.1665
        89                         -0.2495838              -6.7915
        90                         -0.2478470              -6.7443
       ...                                ...                  ...
       165                          1.0320202              28.0827
      -------------------------------------------------------------
                  HL-Gap            0.0132531 Eh            0.3606 eV
             Fermi-level           -0.3946815 Eh          -10.7398 eV

 SCC (total)                   0 d,  0 h,  0 min,  0.233 sec
 SCC setup                      ...        0 min,  0.001 sec (  0.616%)
 Dispersion                     ...        0 min,  0.001 sec (  0.546%)
 classical contributions        ...        0 min,  0.000 sec (  0.083%)
 integral evaluation            ...        0 min,  0.009 sec (  3.955%)
 iterations                     ...        0 min,  0.182 sec ( 78.052%)
 molecular gradient             ...        0 min,  0.033 sec ( 14.214%)
 printout                       ...        0 min,  0.006 sec (  2.524%)

         :::::::::::::::::::::::::::::::::::::::::::::::::::::
         ::                     SUMMARY                     ::
         :::::::::::::::::::::::::::::::::::::::::::::::::::::
         :: total energy             -95.293791659998 Eh    ::
         :: total w/o Gsasa/hb       -95.290217210004 Eh    ::
         :: gradient norm              0.152452386531 Eh/a0 ::
         :: HOMO-LUMO gap              0.360635237623 eV    ::
         ::.................................................::
         :: SCC energy               -96.435855841099 Eh    ::
         :: -> isotropic ES            0.243368228369 Eh    ::
         :: -> anisotropic ES         -0.026073673886 Eh    ::
         :: -> anisotropic XC          0.040285795002 Eh    ::
         :: -> dispersion             -0.070314459379 Eh    ::
         :: -> Gsolv                  -0.097284845454 Eh    ::
         ::    -> Gelec               -0.093710395460 Eh    ::
         ::    -> Gsasa                0.003373223105 Eh    ::
         ::    -> Ghb                 -0.008028432797 Eh    ::
         ::    -> Gshift               0.001080759698 Eh    ::
         :: repulsion energy           1.142064181101 Eh    ::
         :: add. restraining           0.000000000000 Eh    ::
         :: total charge               1.000000000000 e     ::
         :::::::::::::::::::::::::::::::::::::::::::::::::::::

           -------------------------------------------------
          |                Property Printout                |
           -------------------------------------------------

    * Orbital Energies and Occupations

         #    Occupation            Energy/Eh            Energy/eV
      -------------------------------------------------------------
         1        2.0000           -0.8014915             -21.8097
       ...           ...                  ...                  ...
        73        2.0000           -0.4594478             -12.5022
        74        2.0000           -0.4540893             -12.3564
        75        1.9999           -0.4426737             -12.0458
        76        1.9999           -0.4414708             -12.0130
        77        1.9997           -0.4363656             -11.8741
        78        1.9995           -0.4342383             -11.8162
        79        1.9993           -0.4326870             -11.7740
        80        1.9979           -0.4273138             -11.6278
        81        1.9957           -0.4238467             -11.5335
        82        1.9850           -0.4178966             -11.3715
        83        1.9729           -0.4150449             -11.2939
        84        1.9715           -0.4148053             -11.2874
        85        1.6406           -0.4018947             -10.9361 (HOMO)
        86        0.4380           -0.3886416             -10.5755 (LUMO)
        87                         -0.2863256              -7.7913
        88                         -0.2633631              -7.1665
        89                         -0.2495838              -6.7915
        90                         -0.2478470              -6.7443
        91                         -0.2439145              -6.6373
        92                         -0.2416024              -6.5743
        93                         -0.2324648              -6.3257
        94                         -0.1823429              -4.9618
        95                         -0.1739037              -4.7322
        96                         -0.1490970              -4.0571
       ...                                ...                  ...
       165                          1.0320202              28.0827
      -------------------------------------------------------------
                  HL-Gap            0.0132531 Eh            0.3606 eV
             Fermi-level           -0.3946815 Eh          -10.7398 eV

     #   Z          covCN         q      C6AA      α(0)
     1   6 C        2.742     0.285    22.173     7.710
     2   7 N        2.689    -0.074    22.691     7.075
     3   6 C        2.869     0.089    26.025     8.363
     4   6 C        3.682     0.062    19.736     6.362
     5   6 C        3.807    -0.079    22.005     6.678
     6   6 C        2.965     0.034    27.244     8.561
     7   6 C        2.914    -0.035    28.876     8.812
     8   6 C        2.912    -0.030    28.740     8.791
     9   6 C        2.911    -0.029    28.727     8.789
    10   6 C        2.909    -0.027    28.685     8.782
    11   6 C        2.917    -0.036    28.890     8.814
    12   8 O        1.703    -0.238    17.949     5.720
    13   8 O        0.856    -0.422    22.135     6.308
    14   6 C        2.705     0.354    20.986     7.498
    15   6 C        3.746    -0.132    23.116     6.858
    16   6 C        3.814    -0.005    20.661     6.470
    17   8 O        0.857    -0.395    21.589     6.230
    18   6 C        3.789    -0.054    21.565     6.614
    19  16 S        1.971     0.043   139.321    19.866
    20   6 C        3.797    -0.066    21.770     6.644
    21   6 C        3.876     0.014    20.288     6.404
    22   7 N        2.737    -0.247    26.422     7.634
    23  16 S        3.814     1.148   102.507    17.040
    24   6 C        2.960    -0.085    30.120     9.002
    25   6 C        2.931    -0.029    28.720     8.789
    26   6 C        2.923    -0.038    28.955     8.824
    27   6 C        2.954     0.037    27.176     8.550
    28   6 C        2.917    -0.040    28.985     8.828
    29   6 C        2.951    -0.034    28.838     8.808
    30   8 O        0.860    -0.646    27.277     7.002
    31   8 O        0.860    -0.643    27.186     6.991
    32   6 C        3.751    -0.137    23.195     6.869
    33   1 H        0.864     0.275     0.793     1.395
    34   1 H        0.924     0.075     2.030     2.228
    35   1 H        0.923     0.095     1.831     2.116
    36   1 H        0.924     0.118     1.626     1.994
    37   1 H        0.924     0.119     1.619     1.990
    38   1 H        0.924     0.055     2.261     2.351
    39   1 H        0.925     0.055     2.254     2.348
    40   1 H        0.924     0.056     2.248     2.345
    41   1 H        0.924     0.062     2.173     2.305
    42   1 H        0.925     0.059     2.208     2.324
    43   1 H        0.924     0.075     2.035     2.231
    44   1 H        0.924     0.061     2.184     2.311
    45   1 H        0.924     0.066     2.128     2.281
    46   1 H        0.924     0.077     2.014     2.219
    47   1 H        0.924     0.085     1.926     2.170
    48   1 H        0.923     0.118     1.628     1.995
    49   1 H        0.923     0.111     1.687     2.031
    50   1 H        0.922     0.126     1.568     1.958
    51   1 H        0.923     0.120     1.616     1.988
    52   1 H        0.924     0.120     1.611     1.985
    53   1 H        0.925     0.087     1.909     2.161
    54   1 H        0.925     0.087     1.910     2.161
    55   1 H        0.925     0.074     2.042     2.235
    56   1 H        0.926     0.055     2.262     2.352
    57   1 H        0.924     0.076     2.022     2.223
    58   1 H        0.923     0.084     1.942     2.179
    59   1 H        0.925     0.065     2.140     2.288

 Mol. C6AA /au·bohr⁶  :      43363.313240
 Mol. C8AA /au·bohr⁸  :    1117039.106341
 Mol. α(0) /au        :        323.849070


Wiberg/Mayer (AO) data.
largest (>0.10) Wiberg bond orders for each atom

 ---------------------------------------------------------------------------
     #   Z sym  total        # sym  WBO       # sym  WBO       # sym  WBO
 ---------------------------------------------------------------------------
     1   6 C    3.888 --    17 O    1.747     2 N    1.135    21 C    0.931
     2   7 N    3.539 --     3 C    1.314     1 C    1.135    33 H    0.843
                            17 O    0.105
     3   6 C    3.624 --     2 N    1.314     5 C    1.054    14 C    1.030
     4   6 C    3.896 --    15 C    0.993    35 H    0.963    34 H    0.960
                            12 O    0.937
     5   6 C    3.948 --     3 C    1.054    37 H    0.938     6 C    0.935
                            36 H    0.934
     6   6 C    3.931 --    11 C    1.405     7 C    1.399     5 C    0.935
     7   6 C    3.969 --     8 C    1.436     6 C    1.399    38 H    0.966
                            10 C    0.108
     8   6 C    3.969 --     7 C    1.436     9 C    1.425    39 H    0.966
                            11 C    0.104
     9   6 C    3.964 --    10 C    1.434     8 C    1.425    40 H    0.967
    10   6 C    3.973 --     9 C    1.434    11 C    1.433    41 H    0.967
                             7 C    0.108
    11   6 C    3.972 --    10 C    1.433     6 C    1.405    42 H    0.962
                             8 C    0.104
    12   8 O    2.323 --    14 C    1.140     4 C    0.937    13 O    0.187
    13   8 O    1.971 --    14 C    1.662    12 O    0.187
    14   6 C    3.906 --    13 O    1.662    12 O    1.140     3 C    1.030
    15   6 C    3.975 --     4 C    0.993    45 H    0.984    44 H    0.983
                            43 H    0.980
    16   6 C    3.944 --    18 C    1.001    22 N    0.983    46 H    0.958
                            47 H    0.955
    17   8 O    1.999 --     1 C    1.747     2 N    0.105
    18   6 C    3.944 --    16 C    1.001    19 S    0.994    49 H    0.960
                            48 H    0.949
    19  16 S    2.153 --    20 C    1.001    18 C    0.994
    20   6 C    3.948 --    19 S    1.001    21 C    0.983    51 H    0.959
                            50 H    0.950
    21   6 C    3.946 --    20 C    0.983    22 N    0.979     1 C    0.931
                            52 H    0.927
    22   7 N    3.200 --    16 C    0.983    21 C    0.979    23 S    0.891
    23  16 S    4.831 --    31 O    1.560    30 O    1.544    22 N    0.891
                            24 C    0.740
    24   6 C    3.932 --    29 C    1.402    25 C    1.399    23 S    0.740
    25   6 C    3.977 --    26 C    1.457    24 C    1.399    53 H    0.960
                            28 C    0.101
    26   6 C    3.975 --    25 C    1.457    27 C    1.386    54 H    0.962
                            29 C    0.104
    27   6 C    3.969 --    28 C    1.398    26 C    1.386    32 C    1.033
    28   6 C    3.977 --    29 C    1.448    27 C    1.398    55 H    0.964
                            25 C    0.101
    29   6 C    3.982 --    28 C    1.448    24 C    1.402    56 H    0.967
                            26 C    0.104
    30   8 O    1.848 --    23 S    1.544    31 O    0.105
    31   8 O    1.851 --    23 S    1.560    30 O    0.105
    32   6 C    3.982 --    27 C    1.033    59 H    0.982    57 H    0.967
                            58 H    0.954
    33   1 H    0.923 --     2 N    0.843
    34   1 H    0.991 --     4 C    0.960
    35   1 H    0.990 --     4 C    0.963
    36   1 H    0.980 --     5 C    0.934
    37   1 H    0.977 --     5 C    0.938
    38   1 H    0.997 --     7 C    0.966
    39   1 H    0.993 --     8 C    0.966
    40   1 H    0.993 --     9 C    0.967
    41   1 H    0.995 --    10 C    0.967
    42   1 H    0.996 --    11 C    0.962
    43   1 H    0.994 --    15 C    0.980
    44   1 H    0.996 --    15 C    0.983
    45   1 H    0.994 --    15 C    0.984
    46   1 H    0.988 --    16 C    0.958
    47   1 H    0.992 --    16 C    0.955
    48   1 H    0.970 --    18 C    0.949
    49   1 H    0.987 --    18 C    0.960
    50   1 H    0.971 --    20 C    0.950
    51   1 H    0.984 --    20 C    0.959
    52   1 H    0.984 --    21 C    0.927
    53   1 H    0.992 --    25 C    0.960
    54   1 H    0.991 --    26 C    0.962
    55   1 H    0.993 --    28 C    0.964
    56   1 H    0.996 --    29 C    0.967
    57   1 H    0.992 --    32 C    0.967
    58   1 H    0.989 --    32 C    0.954
    59   1 H    0.995 --    32 C    0.982
 ---------------------------------------------------------------------------

Topologies differ in total number of bonds
Writing topology from bond orders to xtbtopo.mol

molecular dipole:
                 x           y           z       tot (Debye)
 q only:       40.254       8.773     104.368
   full:       40.549       8.153     104.316     285.225
molecular quadrupole (traceless):
                xx          xy          yy          xz          yz          zz
 q only:    -3821.340     575.776   -6231.057    6372.118    1373.724   10052.397
  q+dip:    -3791.720     538.911   -6239.212    6409.987    1276.170   10030.932
   full:    -3790.868     539.897   -6240.624    6409.385    1276.267   10031.492


           -------------------------------------------------
          | TOTAL ENERGY              -95.293791659998 Eh   |
          | GRADIENT NORM               0.152452386531 Eh/α |
          | HOMO-LUMO GAP               0.360635237623 eV   |
           -------------------------------------------------

------------------------------------------------------------------------
Note: The following floating-point exceptions are signalling: IEEE_UNDERFLOW_FLAG IEEE_DENORMAL
normal termination of xtb
 * finished run on 2026/01/05 at 09:07:18.207     
------------------------------------------------------------------------
 total:
 * wall-time:     0 d,  0 h,  0 min,  0.265 sec
 *  cpu-time:     0 d,  0 h,  0 min,  3.932 sec
 * ratio c/w:    14.853 speedup
 SCF:
 * wall-time:     0 d,  0 h,  0 min,  0.234 sec
 *  cpu-time:     0 d,  0 h,  0 min,  3.487 sec
 * ratio c/w:    14.928 speedup

