      -----------------------------------------------------------      
     |                   =====================                   |     
     |                           x T B                           |     
     |                   =====================                   |     
     |                         S. Grimme                         |     
     |          Mulliken Center for Theoretical Chemistry        |     
     |                    University of Bonn                     |     
      -----------------------------------------------------------      

   * xtb version 6.7.1 (edcfbbe) compiled by 'conda@c0858423619e' on 2025-09-04

   xtb is free software: you can redistribute it and/or modify it under
   the terms of the GNU Lesser General Public License as published by
   the Free Software Foundation, either version 3 of the License, or
   (at your option) any later version.
   
   xtb is distributed in the hope that it will be useful,
   but WITHOUT ANY WARRANTY; without even the implied warranty of
   MERCHANTABILITY or FITNESS FOR A PARTICULAR PURPOSE.  See the
   GNU Lesser General Public License for more details.
   
   Cite this work as:
   * C. Bannwarth, E. Caldeweyher, S. Ehlert, A. Hansen, P. Pracht,
     J. Seibert, S. Spicher, S. Grimme, WIREs Comput. Mol. Sci., 2020, 11,
     e01493. DOI: 10.1002/wcms.1493
   
   for GFN2-xTB:
   * C. Bannwarth, S. Ehlert and S. Grimme., J. Chem. Theory Comput., 2019,
     15, 1652-1671. DOI: 10.1021/acs.jctc.8b01176
   for GFN1-xTB:
   * S. Grimme, C. Bannwarth, P. Shushkov, J. Chem. Theory Comput., 2017,
     13, 1989-2009. DOI: 10.1021/acs.jctc.7b00118
   for GFN0-xTB:
   * P. Pracht, E. Caldeweyher, S. Ehlert, S. Grimme, ChemRxiv, 2019, preprint.
     DOI: 10.26434/chemrxiv.8326202.v1
   for GFN-FF:
   * S. Spicher and S. Grimme, Angew. Chem. Int. Ed., 2020, 59, 15665-15673.
     DOI: 10.1002/anie.202004239
   
   for ALPB and GBSA implicit solvation:
   * S. Ehlert, M. Stahn, S. Spicher, S. Grimme, J. Chem. Theory Comput.,
     2021, 17, 4250-4261. DOI: 10.1021/acs.jctc.1c00471
   
   for ddCOSMO and CPCM-X implicit solvation:
   * M. Stahn, S. Ehlert, S. Grimme, J. Phys. Chem. A,
     2023, XX, XXXX-XXXX. DOI: 10.1021/acs.jpca.3c04382
   
   for DFT-D4:
   * E. Caldeweyher, C. Bannwarth and S. Grimme, J. Chem. Phys., 2017,
     147, 034112. DOI: 10.1063/1.4993215
   * E. Caldeweyher, S. Ehlert, A. Hansen, H. Neugebauer, S. Spicher,
     C. Bannwarth and S. Grimme, J. Chem. Phys., 2019, 150, 154122.
     DOI: 10.1063/1.5090222
   * E. Caldeweyher, J.-M. Mewes, S. Ehlert and S. Grimme, Phys. Chem. Chem. Phys.
     2020, 22, 8499-8512. DOI: 10.1039/D0CP00502A
   
   for sTDA-xTB:
   * S. Grimme and C. Bannwarth, J. Chem. Phys., 2016, 145, 054103.
     DOI: 10.1063/1.4959605
   
   in the mass-spec context:
   * V. Asgeirsson, C. Bauer and S. Grimme, Chem. Sci., 2017, 8, 4879.
     DOI: 10.1039/c7sc00601b
   * J. Koopman and S. Grimme, ACS Omega 2019, 4, 12, 15120-15133.
     DOI: 10.1021/acsomega.9b02011
   
   for metadynamics refer to:
   * S. Grimme, J. Chem. Theory Comput., 2019, 155, 2847-2862
     DOI: 10.1021/acs.jctc.9b00143
   
   for SPH calculations refer to:
   * S. Spicher and S. Grimme, J. Chem. Theory Comput., 2021, 17, 1701-1714
     DOI: 10.1021/acs.jctc.0c01306
   
   for ONIOM refer to:
   * C. Plett, A. Katbashev, S. Ehlert, S. Grimme, M. Bursch,
     Phys. Chem. Chem. Phys., 2023, 25, 17860-17868. DOI: 10.1039/D3CP02178E
   
   for DIPRO refer to:
   * J. Kohn, N. Gildemeister, S. Grimme, D. Fazzi, A. Hansen,
     J. Chem. Phys., 2023, just accepted.
   
   for PTB refer to:
   * S. Grimme, M. Mueller, A. Hansen, J. Chem. Phys., 2023, 158, 124111.
     DOI: 10.1063/5.0137838
   
   with help from (in alphabetical order)
   P. Atkinson, C. Bannwarth, F. Bohle, G. Brandenburg, E. Caldeweyher
   M. Checinski, S. Dohm, S. Ehlert, S. Ehrlich, I. Gerasimov, C. Hölzer
   A. Katbashev, J. Kohn, J. Koopman, C. Lavigne, S. Lehtola, F. März, M. Müller,
   F. Musil, H. Neugebauer, J. Pisarek, C. Plett, P. Pracht, F. Pultar,
   J. Seibert, P. Shushkov, S. Spicher, M. Stahn, M. Steiner, T. Strunk,
   J. Stückrath, T. Rose, and J. Unsleber
   
 * started run on 2026/01/05 at 09:07:15.004     
   ID    Z sym.   atoms
    1    6 C      1, 3-11, 14-16, 18, 20, 21, 24-29, 32, 62, 64, 67, 68, 70,
                  72, 74, 76, 78, 82, 84, 87, 90, 94, 96, 99, 102, 107, 111,
                  113, 116, 119, 122, 126, 128, 131, 132, 134, 136, 139, 141,
                  143, 147, 149, 152, 154, 158, 160, 164, 166, 168, 172, 175,
                  179, 183, 185, 187, 191, 194, 198
    2    7 N      2, 22, 60, 80, 92, 104, 109, 124, 145, 153, 156, 162, 181
    3    8 O      12, 13, 17, 30, 31, 79, 88, 89, 91, 103, 108, 120, 121,
                  123, 137, 144, 161, 180, 199
    4   16 S      19, 23
    5    1 H      33-59, 61, 63, 65, 66, 69, 71, 73, 75, 77, 81, 83, 85, 86,
                  93, 95, 97, 98, 100, 101, 105, 106, 110, 112, 114, 115,
                  117, 118, 125, 127, 129, 130, 133, 135, 138, 140, 142, 146,
                  148, 150, 151, 155, 157, 159, 163, 165, 167, 169-171, 173,
                  174, 176-178, 182, 184, 186, 188-190, 192, 193, 195-197,
                  200-209

           -------------------------------------------------
          |                Calculation Setup                |
           -------------------------------------------------

          program call               : xtb /home/antonio_mesquita/Documentos/gmx_ISA_project/testes_arquivos_primeiros/gmx_ISA_testes/testes_qm_xtb/QM_analysis/QM_FRAMES_CAPPED/frame_3400ps/complex_capped_3400ps.xyz --gfn 2 --alpb water --chrg -1 --etemp 1500 --cycles 1000
          coordinate file            : /home/antonio_mesquita/Documentos/gmx_ISA_project/testes_arquivos_primeiros/gmx_ISA_testes/testes_qm_xtb/QM_analysis/QM_FRAMES_CAPPED/frame_3400ps/complex_capped_3400ps.xyz
          omp threads                :                    16


molecular fragmentation (1/2 indicates fragments):
111111111111111111111111111111111111111111111111111111111112222222222222
222222222222222222222222222222222222222222222222222222222222222222222222
22222222222222222222222222222222222222222222222222222222222222222
# atoms in fragment 1/2:    59   150
 fragment masses (1/2) :      475.60     1054.20
CMA distance (Bohr)    :   8.602
constraining FC (au)   :  0.0500

           -------------------------------------------------
          |                 G F N 2 - x T B                 |
           -------------------------------------------------

        Reference                      10.1021/acs.jctc.8b01176
      * Hamiltonian:
        H0-scaling (s, p, d)           1.850000    2.230000    2.230000
        zeta-weighting                 0.500000
      * Dispersion:
        s8                             2.700000
        a1                             0.520000
        a2                             5.000000
        s9                             5.000000
      * Repulsion:
        kExp                           1.500000    1.000000
        rExp                           1.000000
      * Coulomb:
        alpha                          2.000000
        third order                    shell-resolved
        anisotropic                    true
        a3                             3.000000
        a5                             4.000000
        cn-shift                       1.200000
        cn-exp                         4.000000
        max-rad                        5.000000

      * Solvation model:               ALPB
        Solvent                        water
        Parameter file                 internal GFN2-xTB/ALPB
        Dielectric constant                8.0200E+01
        Reference state                gsolv [1 M gas/solution]
        Free energy shift                  1.0808E-03 Eh       6.7819E-01 kcal/mol
        Temperature                        2.9815E+02 K
        Density                            1.0000E+00 kg/L
        Solvent mass                       1.8000E+01 g/mol
        Interaction kernel             P16
        Born radius scaling (c1)           1.4744E+00
        Born radii integrator          GBOBC
        Born offset                        0.0000E+00 a0       0.0000E+00 AA
        H-bond correction              true
        Ion screening                  false
        Surface tension                    1.0000E-05 Eh       1.5569E+01 dyn/cm
        Grid points                               230 per atom

          ...................................................
          :                      SETUP                      :
          :.................................................:
          :  # basis functions                 542          :
          :  # atomic orbitals                 540          :
          :  # shells                          318          :
          :  # electrons                       586          :
          :  max. iterations                   250          :
          :  Hamiltonian                  GFN2-xTB          :
          :  restarted?                      false          :
          :  GBSA solvation                   true          :
          :  PC potential                    false          :
          :  electronic temp.         1500.0000000     K    :
          :  accuracy                    1.0000000          :
          :  -> integral cutoff          0.2500000E+02      :
          :  -> integral neglect         0.1000000E-07      :
          :  -> SCF convergence          0.1000000E-05 Eh   :
          :  -> wf. convergence          0.1000000E-03 e    :
          :  Broyden damping             0.4000000          :
          :  net charge                         -1          :
          :  unpaired electrons                  0          :
          ...................................................

 iter      E             dE          RMSdq      gap      omega  full diag
   1   -333.2661135 -0.333266E+03  0.471E+00    0.08       0.0  T
   2   -333.8547553 -0.588642E+00  0.272E+00    1.38       1.0  T
   3   -333.7394613  0.115294E+00  0.189E+00    0.14       1.0  T
   4   -334.0212940 -0.281833E+00  0.983E-01    0.59       1.0  T
   5   -334.0149376  0.635639E-02  0.823E-01    0.16       1.0  T
   6   -334.1366540 -0.121716E+00  0.351E-01    0.20       1.0  T
   7   -334.1015355  0.351185E-01  0.520E-01    0.05       1.0  T
   8   -334.1157157 -0.141802E-01  0.412E-01    0.02       1.0  T
   9   -334.1543846 -0.386689E-01  0.977E-02    0.29       1.0  T
  10   -334.1512115  0.317305E-02  0.139E-01    0.20       1.0  T
  11   -334.1552299 -0.401836E-02  0.417E-02    0.27       1.0  T
  12   -334.1553702 -0.140368E-03  0.280E-02    0.27       1.0  T
  13   -334.1555075 -0.137246E-03  0.988E-03    0.26       1.0  T
  14   -334.1555044  0.306208E-05  0.852E-03    0.26       1.0  T
  15   -334.1555115 -0.704741E-05  0.581E-03    0.26       1.2  T
  16   -334.1555175 -0.606988E-05  0.207E-03    0.26       3.3  T
  17   -334.1555179 -0.383644E-06  0.137E-03    0.27       5.1  T
  18   -334.1555182 -0.318738E-06  0.607E-04    0.26      11.4  T
  19   -334.1555183 -0.706149E-07  0.170E-04    0.26      40.6  T

   *** convergence criteria satisfied after 19 iterations ***

         #    Occupation            Energy/Eh            Energy/eV
      -------------------------------------------------------------
         1        2.0000           -0.7898130             -21.4919
       ...           ...                  ...                  ...
       287        1.9609           -0.3689164             -10.0387
       288        1.9442           -0.3671836              -9.9916
       289        1.9020           -0.3644059              -9.9160
       290        1.8531           -0.3623599              -9.8603
       291        1.8434           -0.3620298              -9.8513
       292        1.8056           -0.3609049              -9.8207
       293        1.7644           -0.3598831              -9.7929 (HOMO)
       294        0.9824           -0.3501510              -9.5281 (LUMO)
       295        0.0001           -0.3004920              -8.1768
       296        0.0000           -0.2985274              -8.1233
       297        0.0000           -0.2927443              -7.9660
       298        0.0000           -0.2909873              -7.9182
       ...           ...                  ...                  ...
       540                          1.0388357              28.2682
      -------------------------------------------------------------
                  HL-Gap            0.0097321 Eh            0.2648 eV
             Fermi-level           -0.3503183 Eh           -9.5326 eV

 SCC (total)                   0 d,  0 h,  0 min,  2.849 sec
 SCC setup                      ...        0 min,  0.012 sec (  0.416%)
 Dispersion                     ...        0 min,  0.014 sec (  0.508%)
 classical contributions        ...        0 min,  0.002 sec (  0.083%)
 integral evaluation            ...        0 min,  0.059 sec (  2.078%)
 iterations                     ...        0 min,  2.573 sec ( 90.307%)
 molecular gradient             ...        0 min,  0.180 sec (  6.334%)
 printout                       ...        0 min,  0.006 sec (  0.208%)

         :::::::::::::::::::::::::::::::::::::::::::::::::::::
         ::                     SUMMARY                     ::
         :::::::::::::::::::::::::::::::::::::::::::::::::::::
         :: total energy            -330.190950275904 Eh    ::
         :: total w/o Gsasa/hb      -330.166522510244 Eh    ::
         :: gradient norm              0.288837444923 Eh/a0 ::
         :: HOMO-LUMO gap              0.264822829107 eV    ::
         ::.................................................::
         :: SCC energy              -334.139976347517 Eh    ::
         :: -> isotropic ES            1.033623100669 Eh    ::
         :: -> anisotropic ES         -0.005385630555 Eh    ::
         :: -> anisotropic XC          0.129496990715 Eh    ::
         :: -> dispersion             -0.252948315965 Eh    ::
         :: -> Gsolv                  -0.304226277588 Eh    ::
         ::    -> Gelec               -0.279798511928 Eh    ::
         ::    -> Gsasa                0.013994985291 Eh    ::
         ::    -> Ghb                 -0.039503510649 Eh    ::
         ::    -> Gshift               0.001080759698 Eh    ::
         :: repulsion energy           3.949026071613 Eh    ::
         :: add. restraining           0.000000000000 Eh    ::
         :: total charge              -0.999999999650 e     ::
         :::::::::::::::::::::::::::::::::::::::::::::::::::::

           -------------------------------------------------
          |                Property Printout                |
           -------------------------------------------------

    * Orbital Energies and Occupations

         #    Occupation            Energy/Eh            Energy/eV
      -------------------------------------------------------------
         1        2.0000           -0.7898130             -21.4919
       ...           ...                  ...                  ...
       281        1.9992           -0.3872587             -10.5378
       282        1.9973           -0.3816510             -10.3853
       283        1.9966           -0.3805792             -10.3561
       284        1.9916           -0.3763080             -10.2399
       285        1.9829           -0.3728885             -10.1468
       286        1.9779           -0.3716592             -10.1134
       287        1.9609           -0.3689164             -10.0387
       288        1.9442           -0.3671836              -9.9916
       289        1.9020           -0.3644059              -9.9160
       290        1.8531           -0.3623599              -9.8603
       291        1.8434           -0.3620298              -9.8513
       292        1.8056           -0.3609049              -9.8207
       293        1.7644           -0.3598831              -9.7929 (HOMO)
       294        0.9824           -0.3501510              -9.5281 (LUMO)
       295        0.0001           -0.3004920              -8.1768
       296        0.0000           -0.2985274              -8.1233
       297        0.0000           -0.2927443              -7.9660
       298        0.0000           -0.2909873              -7.9182
       299        0.0000           -0.2850413              -7.7564
       300                         -0.2598875              -7.0719
       301                         -0.2533050              -6.8928
       302                         -0.2450399              -6.6679
       303                         -0.2279144              -6.2019
       304                         -0.2266669              -6.1679
       ...                                ...                  ...
       540                          1.0388357              28.2682
      -------------------------------------------------------------
                  HL-Gap            0.0097321 Eh            0.2648 eV
             Fermi-level           -0.3503183 Eh           -9.5326 eV

     #   Z          covCN         q      C6AA      α(0)
     1   6 C        2.742     0.268    22.467     7.761
     2   7 N        2.689    -0.119    23.597     7.215
     3   6 C        2.869     0.031    27.313     8.567
     4   6 C        3.682     0.074    19.547     6.332
     5   6 C        3.807    -0.072    21.864     6.656
     6   6 C        2.965     0.020    27.552     8.610
     7   6 C        2.914    -0.041    29.019     8.834
     8   6 C        2.912    -0.036    28.902     8.816
     9   6 C        2.911    -0.036    28.893     8.814
    10   6 C        2.909    -0.024    28.613     8.771
    11   6 C        2.917    -0.035    28.866     8.810
    12   8 O        1.703    -0.276    18.577     5.819
    13   8 O        0.856    -0.494    23.655     6.521
    14   6 C        2.705     0.339    21.235     7.543
    15   6 C        3.746    -0.106    22.590     6.780
    16   6 C        3.814     0.011    20.385     6.426
    17   8 O        0.857    -0.445    22.604     6.374
    18   6 C        3.789    -0.028    21.080     6.539
    19  16 S        1.971    -0.177   148.564    20.515
    20   6 C        3.797    -0.030    21.112     6.543
    21   6 C        3.876     0.022    20.165     6.385
    22   7 N        2.737    -0.283    27.299     7.760
    23  16 S        3.814     1.146   102.565    17.045
    24   6 C        2.960    -0.087    30.181     9.011
    25   6 C        2.931    -0.022    28.556     8.764
    26   6 C        2.923    -0.028    28.703     8.786
    27   6 C        2.954     0.035    27.219     8.557
    28   6 C        2.917    -0.038    28.933     8.821
    29   6 C        2.951    -0.031    28.765     8.797
    30   8 O        0.860    -0.641    27.135     6.984
    31   8 O        0.860    -0.620    26.620     6.918
    32   6 C        3.751    -0.112    22.698     6.794
    33   1 H        0.864     0.235     0.941     1.520
    34   1 H        0.924     0.052     2.293     2.368
    35   1 H        0.923     0.087     1.906     2.159
    36   1 H        0.924     0.083     1.948     2.182
    37   1 H        0.924     0.092     1.858     2.132
    38   1 H        0.924     0.048     2.344     2.394
    39   1 H        0.925     0.052     2.292     2.368
    40   1 H        0.924     0.045     2.382     2.414
    41   1 H        0.924     0.030     2.582     2.513
    42   1 H        0.925     0.027     2.634     2.538
    43   1 H        0.924     0.046     2.373     2.409
    44   1 H        0.924     0.038     2.474     2.460
    45   1 H        0.924     0.056     2.245     2.343
    46   1 H        0.924     0.055     2.264     2.353
    47   1 H        0.924     0.066     2.130     2.282
    48   1 H        0.923     0.078     2.001     2.212
    49   1 H        0.923     0.081     1.973     2.197
    50   1 H        0.922     0.086     1.919     2.167
    51   1 H        0.923     0.084     1.939     2.178
    52   1 H        0.924     0.095     1.834     2.118
    53   1 H        0.925     0.065     2.145     2.290
    54   1 H        0.925     0.050     2.325     2.385
    55   1 H        0.925     0.081     1.972     2.196
    56   1 H        0.926     0.065     2.140     2.287
    57   1 H        0.924     0.060     2.195     2.317
    58   1 H        0.923     0.051     2.311     2.378
    59   1 H        0.925     0.071     2.077     2.254
    60   7 N        2.630    -0.339    28.739     7.962
    61   1 H        0.860     0.177     1.229     1.736
    62   6 C        3.787     0.029    20.102     6.386
    63   1 H        0.924     0.080     1.978     2.200
    64   6 C        3.820    -0.077    21.954     6.668
    65   1 H        0.924     0.071     2.076     2.253
    66   1 H        0.925     0.060     2.200     2.320
    67   6 C        2.970     0.009    27.806     8.649
    68   6 C        2.907    -0.048    29.180     8.858
    69   1 H        0.926     0.061     2.182     2.310
    70   6 C        2.911    -0.039    28.971     8.826
    71   1 H        0.926     0.048     2.342     2.393
    72   6 C        2.910    -0.040    28.986     8.828
    73   1 H        0.926     0.032     2.564     2.504
    74   6 C        2.913    -0.035    28.878     8.812
    75   1 H        0.926     0.023     2.682     2.561
    76   6 C        2.911    -0.037    28.918     8.818
    77   1 H        0.926     0.029     2.606     2.524
    78   6 C        2.759     0.272    22.409     7.752
    79   8 O        0.859    -0.515    24.109     6.583
    80   7 N        2.690    -0.167    24.614     7.368
    81   1 H        0.860     0.215     1.031     1.591
    82   6 C        3.792     0.045    19.821     6.340
    83   1 H        0.925     0.087     1.904     2.158
    84   6 C        3.806    -0.082    22.057     6.686
    85   1 H        0.924     0.049     2.334     2.389
    86   1 H        0.925     0.069     2.096     2.264
    87   6 C        2.688     0.362    20.859     7.474
    88   8 O        0.860    -0.636    27.009     6.968
    89   8 O        0.861    -0.637    27.037     6.972
    90   6 C        2.760     0.212    23.508     7.940
    91   8 O        0.856    -0.365    20.992     6.143
    92   7 N        2.631    -0.345    28.895     7.983
    93   1 H        0.860     0.197     1.123     1.660
    94   6 C        3.795     0.025    20.168     6.395
    95   1 H        0.923     0.078     2.005     2.214
    96   6 C        3.804    -0.061    21.676     6.628
    97   1 H        0.925     0.064     2.148     2.292
    98   1 H        0.925     0.060     2.202     2.320
    99   6 C        3.809    -0.092    22.251     6.715
   100   1 H        0.924     0.064     2.155     2.295
   101   1 H        0.925     0.067     2.116     2.275
   102   6 C        2.743     0.286    22.153     7.706
   103   8 O        0.862    -0.540    24.688     6.662
   104   7 N        2.639    -0.302    27.776     7.827
   105   1 H        0.860     0.243     0.912     1.496
   106   1 H        0.860     0.249     0.886     1.475
   107   6 C        2.749     0.268    22.476     7.763
   108   8 O        0.859    -0.515    24.128     6.586
   109   7 N        2.708    -0.171    24.704     7.382
   110   1 H        0.860     0.224     0.992     1.560
   111   6 C        3.792     0.036    19.985     6.366
   112   1 H        0.925     0.089     1.888     2.149
   113   6 C        3.829    -0.057    21.577     6.609
   114   1 H        0.924     0.046     2.369     2.407
   115   1 H        0.925     0.065     2.141     2.288
   116   6 C        3.801    -0.093    22.272     6.719
   117   1 H        0.924     0.051     2.308     2.376
   118   1 H        0.924     0.042     2.427     2.436
   119   6 C        2.688     0.367    20.769     7.458
   120   8 O        0.858    -0.650    27.389     7.017
   121   8 O        0.858    -0.639    27.099     6.979
   122   6 C        2.761     0.203    23.682     7.969
   123   8 O        0.857    -0.370    21.090     6.157
   124   7 N        2.631    -0.336    28.656     7.950
   125   1 H        0.860     0.190     1.161     1.688
   126   6 C        3.786     0.041    19.896     6.353
   127   1 H        0.924     0.094     1.838     2.120
   128   6 C        3.813    -0.076    21.937     6.667
   129   1 H        0.925     0.082     1.956     2.187
   130   1 H        0.924     0.069     2.094     2.263
   131   6 C        2.961     0.010    27.784     8.646
   132   6 C        2.916    -0.042    29.049     8.838
   133   1 H        0.925     0.047     2.359     2.402
   134   6 C        2.907    -0.059    29.464     8.901
   135   1 H        0.926     0.032     2.558     2.501
   136   6 C        2.837     0.140    24.942     8.184
   137   8 O        1.659    -0.452    21.888     6.316
   138   1 H        0.805     0.344     0.602     1.219
   139   6 C        2.909    -0.071    29.780     8.948
   140   1 H        0.925     0.045     2.384     2.415
   141   6 C        2.911    -0.042    29.045     8.837
   142   1 H        0.925     0.063     2.159     2.298
   143   6 C        2.758     0.199    23.769     7.984
   144   8 O        0.857    -0.392    21.520     6.220
   145   7 N        2.633    -0.314    28.083     7.870
   146   1 H        0.860     0.203     1.091     1.636
   147   6 C        3.785     0.045    19.829     6.343
   148   1 H        0.925     0.067     2.120     2.277
   149   6 C        3.806    -0.070    21.828     6.651
   150   1 H        0.924     0.060     2.201     2.320
   151   1 H        0.925     0.062     2.176     2.307
   152   6 C        3.157     0.044    26.711     8.451
   153   7 N        1.895    -0.318    29.107     7.998
   154   6 C        3.027     0.079    26.216     8.399
   155   1 H        0.925     0.060     2.193     2.316
   156   7 N        2.833    -0.104    23.267     7.164
   157   1 H        0.860     0.223     0.997     1.564
   158   6 C        2.949    -0.030    28.759     8.796
   159   1 H        0.926     0.056     2.241     2.341
   160   6 C        2.759     0.209    23.566     7.950
   161   8 O        0.856    -0.356    20.815     6.117
   162   7 N        2.638    -0.311    28.009     7.860
   163   1 H        0.860     0.191     1.151     1.681
   164   6 C        3.788     0.028    20.118     6.388
   165   1 H        0.925     0.089     1.886     2.148
   166   6 C        3.860    -0.024    20.954     6.510
   167   1 H        0.924     0.058     2.220     2.330
   168   6 C        3.754    -0.114    22.743     6.800
   169   1 H        0.925     0.066     2.128     2.281
   170   1 H        0.924     0.020     2.728     2.583
   171   1 H        0.925     0.040     2.449     2.447
   172   6 C        3.806    -0.060    21.643     6.623
   173   1 H        0.924     0.019     2.754     2.595
   174   1 H        0.925     0.040     2.446     2.446
   175   6 C        3.749    -0.105    22.577     6.777
   176   1 H        0.925     0.037     2.491     2.468
   177   1 H        0.924     0.037     2.483     2.464
   178   1 H        0.924     0.035     2.511     2.478
   179   6 C        2.759     0.273    22.379     7.747
   180   8 O        0.861    -0.516    24.146     6.588
   181   7 N        2.693    -0.153    24.309     7.323
   182   1 H        0.860     0.237     0.936     1.515
   183   6 C        3.808     0.031    20.043     6.373
   184   1 H        0.925     0.079     1.985     2.203
   185   6 C        3.852    -0.019    20.883     6.500
   186   1 H        0.924     0.061     2.184     2.311
   187   6 C        3.755    -0.121    22.872     6.819
   188   1 H        0.924     0.044     2.396     2.421
   189   1 H        0.924     0.060     2.202     2.321
   190   1 H        0.925     0.045     2.389     2.417
   191   6 C        3.804    -0.055    21.564     6.611
   192   1 H        0.925     0.023     2.693     2.566
   193   1 H        0.925     0.040     2.452     2.449
   194   6 C        3.749    -0.104    22.549     6.773
   195   1 H        0.925     0.022     2.707     2.573
   196   1 H        0.924     0.041     2.438     2.442
   197   1 H        0.924     0.035     2.513     2.479
   198   6 C        2.765     0.201    23.726     7.977
   199   8 O        0.859    -0.353    20.757     6.108
   200   1 H        0.860     0.222     0.999     1.566
   201   1 H        0.923     0.069     2.101     2.267
   202   1 H        0.860     0.172     1.259     1.758
   203   1 H        0.923     0.096     1.818     2.108
   204   1 H        0.860     0.202     1.096     1.640
   205   1 H        0.923     0.078     1.996     2.210
   206   1 H        0.860     0.212     1.049     1.604
   207   1 H        0.923     0.078     2.001     2.212
   208   1 H        0.860     0.216     1.028     1.588
   209   1 H        0.923     0.087     1.912     2.163

 Mol. C6AA /au·bohr⁶  :     465255.498636
 Mol. C8AA /au·bohr⁸  :   10924454.053517
 Mol. α(0) /au        :       1041.624855


Wiberg/Mayer (AO) data.
largest (>0.10) Wiberg bond orders for each atom

 ---------------------------------------------------------------------------
     #   Z sym  total        # sym  WBO       # sym  WBO       # sym  WBO
 ---------------------------------------------------------------------------
     1   6 C    3.877 --    17 O    1.676     2 N    1.179    21 C    0.936
     2   7 N    3.491 --     3 C    1.204     1 C    1.179    33 H    0.866
                            17 O    0.133
     3   6 C    3.491 --     2 N    1.204    14 C    1.089     5 C    1.024
     4   6 C    3.916 --    15 C    1.002    34 H    0.969    35 H    0.965
                            12 O    0.947
     5   6 C    3.966 --     3 C    1.024     6 C    0.966    37 H    0.953
                            36 H    0.948
     6   6 C    3.951 --    11 C    1.415     7 C    1.407     5 C    0.966
                             9 C    0.108
     7   6 C    3.984 --     8 C    1.442     6 C    1.407    38 H    0.967
                            10 C    0.112
     8   6 C    3.985 --     7 C    1.442     9 C    1.435    39 H    0.969
                            11 C    0.110
     9   6 C    3.987 --    10 C    1.439     8 C    1.435    40 H    0.970
                             6 C    0.108
    10   6 C    3.989 --     9 C    1.439    11 C    1.439    41 H    0.970
                             7 C    0.112
    11   6 C    3.988 --    10 C    1.439     6 C    1.415    42 H    0.966
                             8 C    0.110
    12   8 O    2.251 --    14 C    1.090     4 C    0.947    13 O    0.148
    13   8 O    1.874 --    14 C    1.607    12 O    0.148
    14   6 C    3.862 --    13 O    1.607    12 O    1.090     3 C    1.089
    15   6 C    3.986 --     4 C    1.002    45 H    0.987    44 H    0.985
                            43 H    0.983
    16   6 C    3.965 --    18 C    1.006    22 N    0.987    46 H    0.965
                            47 H    0.960
    17   8 O    1.921 --     1 C    1.676     2 N    0.133
    18   6 C    3.970 --    16 C    1.006    19 S    0.991    48 H    0.968
                            49 H    0.966
    19  16 S    2.149 --    20 C    0.994    18 C    0.991
    20   6 C    3.971 --    19 S    0.994    21 C    0.991    51 H    0.967
                            50 H    0.965
    21   6 C    3.963 --    20 C    0.991    22 N    0.974     1 C    0.936
                            52 H    0.935
    22   7 N    3.190 --    16 C    0.987    21 C    0.974    23 S    0.895
    23  16 S    4.835 --    31 O    1.564    30 O    1.539    22 N    0.895
                            24 C    0.741
    24   6 C    3.948 --    29 C    1.406    25 C    1.403    23 S    0.741
                            27 C    0.104
    25   6 C    3.986 --    26 C    1.455    24 C    1.403    53 H    0.963
                            28 C    0.101
    26   6 C    3.989 --    25 C    1.455    27 C    1.392    54 H    0.964
                            29 C    0.105
    27   6 C    3.982 --    28 C    1.403    26 C    1.392    32 C    1.030
                            24 C    0.104
    28   6 C    3.982 --    29 C    1.446    27 C    1.403    55 H    0.961
                            25 C    0.101
    29   6 C    3.985 --    28 C    1.446    24 C    1.406    56 H    0.966
                            26 C    0.105
    30   8 O    1.850 --    23 S    1.539    31 O    0.108
    31   8 O    1.864 --    23 S    1.564    30 O    0.108
    32   6 C    3.988 --    27 C    1.030    59 H    0.981    57 H    0.966
                            58 H    0.961
    33   1 H    0.943 --     2 N    0.866
    34   1 H    0.995 --     4 C    0.969
    35   1 H    0.991 --     4 C    0.965
    36   1 H    0.989 --     5 C    0.948
    37   1 H    0.982 --     5 C    0.953
    38   1 H    0.997 --     7 C    0.967
    39   1 H    0.996 --     8 C    0.969
    40   1 H    0.997 --     9 C    0.970
    41   1 H    0.998 --    10 C    0.970
    42   1 H    0.999 --    11 C    0.966
    43   1 H    0.997 --    15 C    0.983
    44   1 H    0.999 --    15 C    0.985
    45   1 H    0.997 --    15 C    0.987
    46   1 H    0.997 --    16 C    0.965
    47   1 H    0.995 --    16 C    0.960
    48   1 H    0.993 --    18 C    0.968
    49   1 H    0.993 --    18 C    0.966
    50   1 H    0.992 --    20 C    0.965
    51   1 H    0.992 --    20 C    0.967
    52   1 H    0.990 --    21 C    0.935
    53   1 H    0.995 --    25 C    0.963
    54   1 H    0.997 --    26 C    0.964
    55   1 H    0.992 --    28 C    0.961
    56   1 H    0.996 --    29 C    0.966
    57   1 H    0.996 --    32 C    0.966
    58   1 H    0.997 --    32 C    0.961
    59   1 H    0.995 --    32 C    0.981
    60   7 N    2.981 --    62 C    1.034    61 H    0.939   200 H    0.934
    61   1 H    0.968 --    60 N    0.939
    62   6 C    3.971 --    60 N    1.034    78 C    0.950    63 H    0.944
                            64 C    0.934
    63   1 H    0.987 --    62 C    0.944
    64   6 C    3.966 --    67 C    1.011    66 H    0.964    65 H    0.962
                            62 C    0.934
    65   1 H    0.994 --    64 C    0.962
    66   1 H    0.994 --    64 C    0.964
    67   6 C    3.983 --    76 C    1.417    68 C    1.406    64 C    1.011
                            72 C    0.103
    68   6 C    3.981 --    70 C    1.444    67 C    1.406    69 H    0.966
                            74 C    0.112
    69   1 H    0.996 --    68 C    0.966
    70   6 C    3.987 --    68 C    1.444    72 C    1.430    71 H    0.971
                            76 C    0.113
    71   1 H    0.997 --    70 C    0.971
    72   6 C    3.983 --    74 C    1.444    70 C    1.430    73 H    0.972
                            67 C    0.103
    73   1 H    0.999 --    72 C    0.972
    74   6 C    3.990 --    72 C    1.444    76 C    1.432    75 H    0.969
                            68 C    0.112
    75   1 H    0.999 --    74 C    0.969
    76   6 C    3.986 --    74 C    1.432    67 C    1.417    77 H    0.968
                            70 C    0.113
    77   1 H    0.999 --    76 C    0.968
    78   6 C    3.935 --    79 O    1.615    80 N    1.291    62 C    0.950
    79   8 O    1.918 --    78 C    1.615    80 N    0.185
    80   7 N    3.459 --    78 C    1.291    82 C    0.980    81 H    0.906
                            79 O    0.185
    81   1 H    0.954 --    80 N    0.906
    82   6 C    3.972 --    90 C    0.988    80 N    0.980    84 C    0.954
                            83 H    0.951
    83   1 H    0.992 --    82 C    0.951
    84   6 C    3.986 --    85 H    0.972    82 C    0.954    86 H    0.946
                            87 C    0.940
    85   1 H    0.998 --    84 C    0.972
    86   1 H    0.995 --    84 C    0.946
    87   6 C    3.932 --    89 O    1.483    88 O    1.483    84 C    0.940
    88   8 O    1.759 --    87 C    1.483    89 O    0.205
    89   8 O    1.758 --    87 C    1.483    88 O    0.205
    90   6 C    3.887 --    91 O    1.899    82 C    0.988   201 H    0.941
    91   8 O    2.044 --    90 C    1.899
    92   7 N    2.999 --    94 C    1.021   202 H    0.955    93 H    0.950
    93   1 H    0.961 --    92 N    0.950
    94   6 C    3.973 --    92 N    1.021    96 C    0.973   107 C    0.944
                            95 H    0.938
    95   1 H    0.990 --    94 C    0.938
    96   6 C    3.977 --    99 C    1.003    97 H    0.973    94 C    0.973
                            98 H    0.971
    97   1 H    0.995 --    96 C    0.973
    98   1 H    0.996 --    96 C    0.971
    99   6 C    3.991 --    96 C    1.003   101 H    0.971   102 C    0.966
                           100 H    0.950
   100   1 H    0.995 --    99 C    0.950
   101   1 H    0.995 --    99 C    0.971
   102   6 C    3.938 --   103 O    1.620   104 N    1.322    99 C    0.966
   103   8 O    1.914 --   102 C    1.620   104 N    0.194
   104   7 N    3.387 --   102 C    1.322   105 H    0.921   106 H    0.915
                           103 O    0.194
   105   1 H    0.941 --   104 N    0.921
   106   1 H    0.937 --   104 N    0.915
   107   6 C    3.935 --   108 O    1.625   109 N    1.293    94 C    0.944
   108   8 O    1.929 --   107 C    1.625   109 N    0.192
   109   7 N    3.462 --   107 C    1.293   111 C    0.981   110 H    0.913
                           108 O    0.192
   110   1 H    0.950 --   109 N    0.913
   111   6 C    3.967 --   122 C    0.982   109 N    0.981   113 C    0.956
                           112 H    0.945
   112   1 H    0.992 --   111 C    0.945
   113   6 C    3.988 --   116 C    1.006   115 H    0.971   114 H    0.969
                           111 C    0.956
   114   1 H    0.997 --   113 C    0.969
   115   1 H    0.996 --   113 C    0.971
   116   6 C    3.985 --   113 C    1.006   118 H    0.963   117 H    0.963
                           119 C    0.938
   117   1 H    0.997 --   116 C    0.963
   118   1 H    0.998 --   116 C    0.963
   119   6 C    3.927 --   121 O    1.495   120 O    1.470   116 C    0.938
   120   8 O    1.742 --   119 C    1.470   121 O    0.205
   121   8 O    1.774 --   119 C    1.495   120 O    0.205
   122   6 C    3.881 --   123 O    1.895   111 C    0.982   203 H    0.933
   123   8 O    2.043 --   122 C    1.895
   124   7 N    2.984 --   126 C    1.035   125 H    0.946   204 H    0.944
   125   1 H    0.964 --   124 N    0.946
   126   6 C    3.971 --   124 N    1.035   143 C    0.979   128 C    0.941
                           127 H    0.921
   127   1 H    0.985 --   126 C    0.921
   128   6 C    3.978 --   131 C    1.012   130 H    0.969   129 H    0.960
                           126 C    0.941
   129   1 H    0.991 --   128 C    0.960
   130   1 H    0.995 --   128 C    0.969
   131   6 C    3.981 --   132 C    1.410   141 C    1.394   128 C    1.012
   132   6 C    3.986 --   134 C    1.451   131 C    1.410   133 H    0.967
                           139 C    0.102
   133   1 H    0.998 --   132 C    0.967
   134   6 C    3.985 --   132 C    1.451   136 C    1.367   135 H    0.971
                           141 C    0.108
   135   1 H    0.999 --   134 C    0.971
   136   6 C    3.922 --   134 C    1.367   139 C    1.363   137 O    1.060
   137   8 O    2.069 --   136 C    1.060   138 H    0.859
   138   1 H    0.881 --   137 O    0.859
   139   6 C    3.981 --   141 C    1.457   136 C    1.363   140 H    0.967
                           132 C    0.102
   140   1 H    0.998 --   139 C    0.967
   141   6 C    3.983 --   139 C    1.457   131 C    1.394   142 H    0.963
                           134 C    0.108
   142   1 H    0.996 --   141 C    0.963
   143   6 C    3.860 --   144 O    1.873   126 C    0.979   205 H    0.934
   144   8 O    2.021 --   143 C    1.873
   145   7 N    2.969 --   147 C    1.026   206 H    0.940   146 H    0.927
   146   1 H    0.959 --   145 N    0.927
   147   6 C    3.975 --   145 N    1.026   160 C    0.987   148 H    0.953
                           149 C    0.926
   148   1 H    0.986 --   147 C    0.953
   149   6 C    3.960 --   152 C    1.014   150 H    0.963   151 H    0.962
                           147 C    0.926
   150   1 H    0.995 --   149 C    0.963
   151   1 H    0.996 --   149 C    0.962
   152   6 C    3.966 --   158 C    1.559   153 N    1.266   149 C    1.014
   153   7 N    2.993 --   154 C    1.525   152 C    1.266   156 N    0.105
   154   6 C    3.951 --   153 N    1.525   156 N    1.291   155 H    0.963
                           158 C    0.115
   155   1 H    0.996 --   154 C    0.963
   156   7 N    3.589 --   154 C    1.291   158 C    1.206   157 H    0.922
                           153 N    0.105
   157   1 H    0.950 --   156 N    0.922
   158   6 C    3.929 --   152 C    1.559   156 N    1.206   159 H    0.968
                           154 C    0.115
   159   1 H    0.997 --   158 C    0.968
   160   6 C    3.878 --   161 O    1.889   147 C    0.987   207 H    0.938
   161   8 O    2.068 --   160 C    1.889
   162   7 N    2.962 --   164 C    1.026   163 H    0.942   208 H    0.938
   163   1 H    0.963 --   162 N    0.942
   164   6 C    3.957 --   162 N    1.026   179 C    0.947   165 H    0.942
                           166 C    0.940
   165   1 H    0.985 --   164 C    0.942
   166   6 C    3.953 --   168 C    1.006   172 C    0.987   167 H    0.962
                           164 C    0.940
   167   1 H    0.995 --   166 C    0.962
   168   6 C    3.988 --   166 C    1.006   170 H    0.985   171 H    0.982
                           169 H    0.978
   169   1 H    0.995 --   168 C    0.978
   170   1 H    0.999 --   168 C    0.985
   171   1 H    0.996 --   168 C    0.982
   172   6 C    3.987 --   175 C    1.018   166 C    0.987   173 H    0.976
                           174 H    0.970
   173   1 H    1.000 --   172 C    0.976
   174   1 H    0.994 --   172 C    0.970
   175   6 C    3.992 --   172 C    1.018   178 H    0.985   177 H    0.982
                           176 H    0.982
   176   1 H    0.997 --   175 C    0.982
   177   1 H    0.998 --   175 C    0.982
   178   1 H    0.998 --   175 C    0.985
   179   6 C    3.938 --   180 O    1.601   181 N    1.315   164 C    0.947
   180   8 O    1.907 --   179 C    1.601   181 N    0.188
   181   7 N    3.485 --   179 C    1.315   183 C    0.970   182 H    0.890
                           180 O    0.188
   182   1 H    0.944 --   181 N    0.890
   183   6 C    3.962 --   198 C    0.970   181 N    0.970   185 C    0.964
                           184 H    0.954
   184   1 H    0.993 --   183 C    0.954
   185   6 C    3.988 --   187 C    1.005   191 C    0.994   183 C    0.964
                           186 H    0.958
   186   1 H    0.996 --   185 C    0.958
   187   6 C    3.992 --   185 C    1.005   188 H    0.986   190 H    0.985
                           189 H    0.981
   188   1 H    0.998 --   187 C    0.986
   189   1 H    0.996 --   187 C    0.981
   190   1 H    0.998 --   187 C    0.985
   191   6 C    3.994 --   194 C    1.011   185 C    0.994   193 H    0.976
                           192 H    0.975
   192   1 H    0.999 --   191 C    0.975
   193   1 H    0.998 --   191 C    0.976
   194   6 C    3.992 --   191 C    1.011   197 H    0.988   195 H    0.983
                           196 H    0.982
   195   1 H    0.999 --   194 C    0.983
   196   1 H    0.998 --   194 C    0.982
   197   1 H    0.999 --   194 C    0.988
   198   6 C    3.881 --   199 O    1.905   183 C    0.970   209 H    0.936
   199   8 O    2.062 --   198 C    1.905
   200   1 H    0.950 --    60 N    0.934
   201   1 H    0.995 --    90 C    0.941
   202   1 H    0.970 --    92 N    0.955
   203   1 H    0.991 --   122 C    0.933
   204   1 H    0.959 --   124 N    0.944
   205   1 H    0.988 --   143 C    0.934
   206   1 H    0.955 --   145 N    0.940
   207   1 H    0.992 --   160 C    0.938
   208   1 H    0.953 --   162 N    0.938
   209   1 H    0.992 --   198 C    0.936
 ---------------------------------------------------------------------------

Topologies differ in total number of bonds
Writing topology from bond orders to xtbtopo.mol

molecular dipole:
                 x           y           z       tot (Debye)
 q only:      -32.147     -14.813    -117.783
   full:      -32.160     -14.369    -116.939     310.422
molecular quadrupole (traceless):
                xx          xy          yy          xz          yz          zz
 q only:     5762.233    -740.639    7321.426   -6000.196   -2490.982  -13083.659
  q+dip:     5655.870    -711.255    7272.425   -5940.766   -2425.456  -12928.295
   full:     5658.955    -709.489    7271.001   -5943.111   -2421.369  -12929.956


           -------------------------------------------------
          | TOTAL ENERGY             -330.190950275904 Eh   |
          | GRADIENT NORM               0.288837444923 Eh/α |
          | HOMO-LUMO GAP               0.264822829107 eV   |
           -------------------------------------------------

------------------------------------------------------------------------
 * finished run on 2026/01/05 at 09:07:17.934     
------------------------------------------------------------------------
 total:
 * wall-time:     0 d,  0 h,  0 min,  2.930 sec
 *  cpu-time:     0 d,  0 h,  0 min, 42.875 sec
 * ratio c/w:    14.635 speedup
 SCF:
 * wall-time:     0 d,  0 h,  0 min,  2.851 sec
 *  cpu-time:     0 d,  0 h,  0 min, 41.733 sec
 * ratio c/w:    14.636 speedup
Note: The following floating-point exceptions are signalling: IEEE_UNDERFLOW_FLAG IEEE_DENORMAL
normal termination of xtb

