      -----------------------------------------------------------      
     |                   =====================                   |     
     |                           x T B                           |     
     |                   =====================                   |     
     |                         S. Grimme                         |     
     |          Mulliken Center for Theoretical Chemistry        |     
     |                    University of Bonn                     |     
      -----------------------------------------------------------      

   * xtb version 6.7.1 (edcfbbe) compiled by 'conda@c0858423619e' on 2025-09-04

   xtb is free software: you can redistribute it and/or modify it under
   the terms of the GNU Lesser General Public License as published by
   the Free Software Foundation, either version 3 of the License, or
   (at your option) any later version.
   
   xtb is distributed in the hope that it will be useful,
   but WITHOUT ANY WARRANTY; without even the implied warranty of
   MERCHANTABILITY or FITNESS FOR A PARTICULAR PURPOSE.  See the
   GNU Lesser General Public License for more details.
   
   Cite this work as:
   * C. Bannwarth, E. Caldeweyher, S. Ehlert, A. Hansen, P. Pracht,
     J. Seibert, S. Spicher, S. Grimme, WIREs Comput. Mol. Sci., 2020, 11,
     e01493. DOI: 10.1002/wcms.1493
   
   for GFN2-xTB:
   * C. Bannwarth, S. Ehlert and S. Grimme., J. Chem. Theory Comput., 2019,
     15, 1652-1671. DOI: 10.1021/acs.jctc.8b01176
   for GFN1-xTB:
   * S. Grimme, C. Bannwarth, P. Shushkov, J. Chem. Theory Comput., 2017,
     13, 1989-2009. DOI: 10.1021/acs.jctc.7b00118
   for GFN0-xTB:
   * P. Pracht, E. Caldeweyher, S. Ehlert, S. Grimme, ChemRxiv, 2019, preprint.
     DOI: 10.26434/chemrxiv.8326202.v1
   for GFN-FF:
   * S. Spicher and S. Grimme, Angew. Chem. Int. Ed., 2020, 59, 15665-15673.
     DOI: 10.1002/anie.202004239
   
   for ALPB and GBSA implicit solvation:
   * S. Ehlert, M. Stahn, S. Spicher, S. Grimme, J. Chem. Theory Comput.,
     2021, 17, 4250-4261. DOI: 10.1021/acs.jctc.1c00471
   
   for ddCOSMO and CPCM-X implicit solvation:
   * M. Stahn, S. Ehlert, S. Grimme, J. Phys. Chem. A,
     2023, XX, XXXX-XXXX. DOI: 10.1021/acs.jpca.3c04382
   
   for DFT-D4:
   * E. Caldeweyher, C. Bannwarth and S. Grimme, J. Chem. Phys., 2017,
     147, 034112. DOI: 10.1063/1.4993215
   * E. Caldeweyher, S. Ehlert, A. Hansen, H. Neugebauer, S. Spicher,
     C. Bannwarth and S. Grimme, J. Chem. Phys., 2019, 150, 154122.
     DOI: 10.1063/1.5090222
   * E. Caldeweyher, J.-M. Mewes, S. Ehlert and S. Grimme, Phys. Chem. Chem. Phys.
     2020, 22, 8499-8512. DOI: 10.1039/D0CP00502A
   
   for sTDA-xTB:
   * S. Grimme and C. Bannwarth, J. Chem. Phys., 2016, 145, 054103.
     DOI: 10.1063/1.4959605
   
   in the mass-spec context:
   * V. Asgeirsson, C. Bauer and S. Grimme, Chem. Sci., 2017, 8, 4879.
     DOI: 10.1039/c7sc00601b
   * J. Koopman and S. Grimme, ACS Omega 2019, 4, 12, 15120-15133.
     DOI: 10.1021/acsomega.9b02011
   
   for metadynamics refer to:
   * S. Grimme, J. Chem. Theory Comput., 2019, 155, 2847-2862
     DOI: 10.1021/acs.jctc.9b00143
   
   for SPH calculations refer to:
   * S. Spicher and S. Grimme, J. Chem. Theory Comput., 2021, 17, 1701-1714
     DOI: 10.1021/acs.jctc.0c01306
   
   for ONIOM refer to:
   * C. Plett, A. Katbashev, S. Ehlert, S. Grimme, M. Bursch,
     Phys. Chem. Chem. Phys., 2023, 25, 17860-17868. DOI: 10.1039/D3CP02178E
   
   for DIPRO refer to:
   * J. Kohn, N. Gildemeister, S. Grimme, D. Fazzi, A. Hansen,
     J. Chem. Phys., 2023, just accepted.
   
   for PTB refer to:
   * S. Grimme, M. Mueller, A. Hansen, J. Chem. Phys., 2023, 158, 124111.
     DOI: 10.1063/5.0137838
   
   with help from (in alphabetical order)
   P. Atkinson, C. Bannwarth, F. Bohle, G. Brandenburg, E. Caldeweyher
   M. Checinski, S. Dohm, S. Ehlert, S. Ehrlich, I. Gerasimov, C. Hölzer
   A. Katbashev, J. Kohn, J. Koopman, C. Lavigne, S. Lehtola, F. März, M. Müller,
   F. Musil, H. Neugebauer, J. Pisarek, C. Plett, P. Pracht, F. Pultar,
   J. Seibert, P. Shushkov, S. Spicher, M. Stahn, M. Steiner, T. Strunk,
   J. Stückrath, T. Rose, and J. Unsleber
   
 * started run on 2026/01/05 at 09:06:56.038     
   ID    Z sym.   atoms
    1    6 C      1, 3-11, 14-16, 18, 20, 21, 24-29, 32, 62, 64, 67, 68, 70,
                  72, 74, 76, 78, 82, 84, 87, 90, 94, 96, 99, 100, 102, 104,
                  106, 108, 110, 114, 116, 119, 122, 127, 131, 133, 136, 139,
                  142, 146, 148, 150, 154, 158, 162, 164, 166, 170, 173, 177,
                  181, 183, 186, 189, 194, 201, 205, 207, 210, 211, 213, 215,
                  218, 220, 222, 226, 229, 233, 235, 238, 240, 244, 246, 250,
                  252, 254, 258, 261, 265, 269, 271, 273, 277, 280, 284
    2    7 N      2, 22, 60, 80, 92, 112, 124, 129, 144, 160, 179, 192, 195,
                  198, 203, 224, 231, 239, 242, 248, 267
    3    8 O      12, 13, 17, 30, 31, 79, 88, 89, 91, 111, 123, 128, 140,
                  141, 143, 159, 178, 202, 216, 223, 230, 247, 266, 285
    4   16 S      19, 23
    5    1 H      33-59, 61, 63, 65, 66, 69, 71, 73, 75, 77, 81, 83, 85, 86,
                  93, 95, 97, 98, 101, 103, 105, 107, 109, 113, 115, 117,
                  118, 120, 121, 125, 126, 130, 132, 134, 135, 137, 138, 145,
                  147, 149, 151-153, 155-157, 161, 163, 165, 167-169, 171,
                  172, 174-176, 180, 182, 184, 185, 187, 188, 190, 191, 193,
                  196, 197, 199, 200, 204, 206, 208, 209, 212, 214, 217, 219,
                  221, 225, 227, 228, 232, 234, 236, 237, 241, 243, 245, 249,
                  251, 253, 255-257, 259, 260, 262-264, 268, 270, 272,
                  274-276, 278, 279, 281-283, 286-297

           -------------------------------------------------
          |                Calculation Setup                |
           -------------------------------------------------

          program call               : xtb /home/antonio_mesquita/Documentos/gmx_ISA_project/testes_arquivos_primeiros/gmx_ISA_testes/testes_qm_xtb/QM_analysis/QM_FRAMES_CAPPED/frame_2600ps/complex_capped_2600ps.xyz --gfn 2 --alpb water --chrg 0 --etemp 1500 --cycles 1000
          coordinate file            : /home/antonio_mesquita/Documentos/gmx_ISA_project/testes_arquivos_primeiros/gmx_ISA_testes/testes_qm_xtb/QM_analysis/QM_FRAMES_CAPPED/frame_2600ps/complex_capped_2600ps.xyz
          omp threads                :                    16


molecular fragmentation (1/2 indicates fragments):
111111111111111111111111111111111111111111111111111111111112222222222222
222222222222222222222222222222222222222222222222222222222222222222222222
222222222222222222222222222222222222222222222222222222222222222222222222
222222222222222222222222222222222222222222222222222222222222222222222222
222222222
# atoms in fragment 1/2:    59   238
 fragment masses (1/2) :      475.60     1629.92
CMA distance (Bohr)    :   8.388
constraining FC (au)   :  0.0500

           -------------------------------------------------
          |                 G F N 2 - x T B                 |
           -------------------------------------------------

        Reference                      10.1021/acs.jctc.8b01176
      * Hamiltonian:
        H0-scaling (s, p, d)           1.850000    2.230000    2.230000
        zeta-weighting                 0.500000
      * Dispersion:
        s8                             2.700000
        a1                             0.520000
        a2                             5.000000
        s9                             5.000000
      * Repulsion:
        kExp                           1.500000    1.000000
        rExp                           1.000000
      * Coulomb:
        alpha                          2.000000
        third order                    shell-resolved
        anisotropic                    true
        a3                             3.000000
        a5                             4.000000
        cn-shift                       1.200000
        cn-exp                         4.000000
        max-rad                        5.000000

      * Solvation model:               ALPB
        Solvent                        water
        Parameter file                 internal GFN2-xTB/ALPB
        Dielectric constant                8.0200E+01
        Reference state                gsolv [1 M gas/solution]
        Free energy shift                  1.0808E-03 Eh       6.7819E-01 kcal/mol
        Temperature                        2.9815E+02 K
        Density                            1.0000E+00 kg/L
        Solvent mass                       1.8000E+01 g/mol
        Interaction kernel             P16
        Born radius scaling (c1)           1.4744E+00
        Born radii integrator          GBOBC
        Born offset                        0.0000E+00 a0       0.0000E+00 AA
        H-bond correction              true
        Ion screening                  false
        Surface tension                    1.0000E-05 Eh       1.5569E+01 dyn/cm
        Grid points                               230 per atom

          ...................................................
          :                      SETUP                      :
          :.................................................:
          :  # basis functions                 753          :
          :  # atomic orbitals                 751          :
          :  # shells                          447          :
          :  # electrons                       814          :
          :  max. iterations                   250          :
          :  Hamiltonian                  GFN2-xTB          :
          :  restarted?                      false          :
          :  GBSA solvation                   true          :
          :  PC potential                    false          :
          :  electronic temp.         1500.0000000     K    :
          :  accuracy                    1.0000000          :
          :  -> integral cutoff          0.2500000E+02      :
          :  -> integral neglect         0.1000000E-07      :
          :  -> SCF convergence          0.1000000E-05 Eh   :
          :  -> wf. convergence          0.1000000E-03 e    :
          :  Broyden damping             0.4000000          :
          :  net charge                          0          :
          :  unpaired electrons                  0          :
          ...................................................

 iter      E             dE          RMSdq      gap      omega  full diag
   1   -462.0355283 -0.462036E+03  0.444E+00    0.05       0.0  T
   2   -462.8945808 -0.859052E+00  0.250E+00    1.18       1.0  T
   3   -462.7876449  0.106936E+00  0.166E+00    0.11       1.0  T
   4   -463.0375319 -0.249887E+00  0.889E-01    0.46       1.0  T
   5   -463.0694726 -0.319407E-01  0.664E-01    0.08       1.0  T
   6   -463.1859224 -0.116450E+00  0.262E-01    0.29       1.0  T
   7   -463.1765089  0.941354E-02  0.278E-01    0.11       1.0  T
   8   -463.1916538 -0.151449E-01  0.148E-01    0.23       1.0  T
   9   -463.1958379 -0.418406E-02  0.775E-02    0.30       1.0  T
  10   -463.1965078 -0.669881E-03  0.510E-02    0.25       1.0  T
  11   -463.1963802  0.127613E-03  0.464E-02    0.29       1.0  T
  12   -463.1969154 -0.535188E-03  0.234E-02    0.27       1.0  T
  13   -463.1970509 -0.135530E-03  0.876E-03    0.27       1.0  T
  14   -463.1970555 -0.462739E-05  0.538E-03    0.27       1.1  T
  15   -463.1970572 -0.172957E-05  0.404E-03    0.27       1.4  T
  16   -463.1970607 -0.344247E-05  0.211E-03    0.27       2.7  T
  17   -463.1970610 -0.307105E-06  0.153E-03    0.27       3.8  T
  18   -463.1970615 -0.527011E-06  0.796E-04    0.27       7.3  T
  19   -463.1970617 -0.148666E-06  0.311E-04    0.27      18.7  T

   *** convergence criteria satisfied after 19 iterations ***

         #    Occupation            Energy/Eh            Energy/eV
      -------------------------------------------------------------
         1        2.0000           -0.7878452             -21.4384
       ...           ...                  ...                  ...
       401        1.9433           -0.3666818              -9.9779
       402        1.8910           -0.3634488              -9.8899
       403        1.8730           -0.3626742              -9.8689
       404        1.8683           -0.3624902              -9.8639
       405        1.8655           -0.3623855              -9.8610
       406        1.8267           -0.3610811              -9.8255
       407        1.7908           -0.3600919              -9.7986 (HOMO)
       408        1.0296           -0.3501733              -9.5287 (LUMO)
       409        0.0002           -0.3055494              -8.3144
       410        0.0000           -0.2980652              -8.1108
       411        0.0000           -0.2927085              -7.9650
       412        0.0000           -0.2917192              -7.9381
       ...           ...                  ...                  ...
       751                          1.0620199              28.8990
      -------------------------------------------------------------
                  HL-Gap            0.0099186 Eh            0.2699 eV
             Fermi-level           -0.3498921 Eh           -9.5210 eV

 SCC (total)                   0 d,  0 h,  0 min,  3.732 sec
 SCC setup                      ...        0 min,  0.018 sec (  0.487%)
 Dispersion                     ...        0 min,  0.033 sec (  0.893%)
 classical contributions        ...        0 min,  0.003 sec (  0.094%)
 integral evaluation            ...        0 min,  0.058 sec (  1.548%)
 iterations                     ...        0 min,  3.312 sec ( 88.737%)
 molecular gradient             ...        0 min,  0.297 sec (  7.971%)
 printout                       ...        0 min,  0.010 sec (  0.270%)

         :::::::::::::::::::::::::::::::::::::::::::::::::::::
         ::                     SUMMARY                     ::
         :::::::::::::::::::::::::::::::::::::::::::::::::::::
         :: total energy            -457.553520508833 Eh    ::
         :: total w/o Gsasa/hb      -457.513868566849 Eh    ::
         :: gradient norm              0.321148775308 Eh/a0 ::
         :: HOMO-LUMO gap              0.269899310647 eV    ::
         ::.................................................::
         :: SCC energy              -463.174880644989 Eh    ::
         :: -> isotropic ES            1.421031942394 Eh    ::
         :: -> anisotropic ES         -0.010876061608 Eh    ::
         :: -> anisotropic XC          0.184029541366 Eh    ::
         :: -> dispersion             -0.359676703963 Eh    ::
         :: -> Gsolv                  -0.474057315560 Eh    ::
         ::    -> Gelec               -0.434405373576 Eh    ::
         ::    -> Gsasa                0.014265607978 Eh    ::
         ::    -> Ghb                 -0.054998309660 Eh    ::
         ::    -> Gshift               0.001080759698 Eh    ::
         :: repulsion energy           5.621360136157 Eh    ::
         :: add. restraining           0.000000000000 Eh    ::
         :: total charge              -0.000000000011 e     ::
         :::::::::::::::::::::::::::::::::::::::::::::::::::::

           -------------------------------------------------
          |                Property Printout                |
           -------------------------------------------------

    * Orbital Energies and Occupations

         #    Occupation            Energy/Eh            Energy/eV
      -------------------------------------------------------------
         1        2.0000           -0.7878452             -21.4384
       ...           ...                  ...                  ...
       395        1.9979           -0.3825735             -10.4104
       396        1.9975           -0.3815886             -10.3836
       397        1.9913           -0.3757062             -10.2235
       398        1.9853           -0.3731952             -10.1552
       399        1.9815           -0.3720834             -10.1249
       400        1.9604           -0.3684263             -10.0254
       401        1.9433           -0.3666818              -9.9779
       402        1.8910           -0.3634488              -9.8899
       403        1.8730           -0.3626742              -9.8689
       404        1.8683           -0.3624902              -9.8639
       405        1.8655           -0.3623855              -9.8610
       406        1.8267           -0.3610811              -9.8255
       407        1.7908           -0.3600919              -9.7986 (HOMO)
       408        1.0296           -0.3501733              -9.5287 (LUMO)
       409        0.0002           -0.3055494              -8.3144
       410        0.0000           -0.2980652              -8.1108
       411        0.0000           -0.2927085              -7.9650
       412        0.0000           -0.2917192              -7.9381
       413        0.0000           -0.2908322              -7.9139
       414        0.0000           -0.2835662              -7.7162
       415                         -0.2614470              -7.1143
       416                         -0.2542697              -6.9190
       417                         -0.2480240              -6.7491
       418                         -0.2359945              -6.4217
       ...                                ...                  ...
       751                          1.0620199              28.8990
      -------------------------------------------------------------
                  HL-Gap            0.0099186 Eh            0.2699 eV
             Fermi-level           -0.3498921 Eh           -9.5210 eV

     #   Z          covCN         q      C6AA      α(0)
     1   6 C        2.743     0.262    22.579     7.780
     2   7 N        2.694    -0.130    23.820     7.249
     3   6 C        2.867     0.023    27.482     8.593
     4   6 C        3.679     0.081    19.439     6.315
     5   6 C        3.808    -0.070    21.837     6.652
     6   6 C        2.954     0.019    27.580     8.614
     7   6 C        2.918    -0.038    28.954     8.824
     8   6 C        2.905    -0.039    28.975     8.826
     9   6 C        2.923    -0.038    28.936     8.821
    10   6 C        2.900    -0.031    28.762     8.793
    11   6 C        2.935    -0.033    28.815     8.804
    12   8 O        1.703    -0.280    18.647     5.830
    13   8 O        0.857    -0.501    23.809     6.542
    14   6 C        2.706     0.329    21.401     7.572
    15   6 C        3.744    -0.115    22.776     6.808
    16   6 C        3.838     0.016    20.286     6.408
    17   8 O        0.857    -0.448    22.655     6.382
    18   6 C        3.790    -0.020    20.946     6.518
    19  16 S        1.980    -0.172   148.345    20.499
    20   6 C        3.788    -0.034    21.190     6.556
    21   6 C        3.849     0.033    19.992     6.360
    22   7 N        2.728    -0.298    27.657     7.811
    23  16 S        3.798     1.149   102.482    17.038
    24   6 C        2.961    -0.085    30.123     9.002
    25   6 C        2.925    -0.024    28.604     8.771
    26   6 C        2.928    -0.031    28.769     8.796
    27   6 C        2.953     0.039    27.119     8.541
    28   6 C        2.920    -0.041    29.020     8.834
    29   6 C        2.963    -0.034    28.847     8.810
    30   8 O        0.859    -0.656    27.529     7.035
    31   8 O        0.859    -0.619    26.598     6.915
    32   6 C        3.751    -0.133    23.120     6.857
    33   1 H        0.860     0.239     0.926     1.508
    34   1 H        0.924     0.054     2.265     2.354
    35   1 H        0.924     0.070     2.082     2.256
    36   1 H        0.924     0.083     1.947     2.182
    37   1 H        0.925     0.094     1.844     2.124
    38   1 H        0.924     0.044     2.397     2.421
    39   1 H        0.926     0.067     2.119     2.277
    40   1 H        0.925     0.053     2.279     2.361
    41   1 H        0.926     0.032     2.561     2.503
    42   1 H        0.925     0.014     2.831     2.631
    43   1 H        0.923     0.036     2.499     2.472
    44   1 H        0.924     0.065     2.141     2.288
    45   1 H        0.922     0.061     2.182     2.310
    46   1 H        0.923     0.036     2.497     2.471
    47   1 H        0.923     0.062     2.172     2.305
    48   1 H        0.923     0.058     2.223     2.332
    49   1 H        0.924     0.083     1.952     2.185
    50   1 H        0.924     0.083     1.947     2.182
    51   1 H        0.923     0.100     1.784     2.089
    52   1 H        0.922     0.091     1.874     2.141
    53   1 H        0.925     0.065     2.137     2.286
    54   1 H        0.925     0.076     2.019     2.222
    55   1 H        0.925     0.076     2.021     2.223
    56   1 H        0.926     0.057     2.233     2.337
    57   1 H        0.924     0.088     1.899     2.155
    58   1 H        0.924     0.064     2.155     2.296
    59   1 H        0.925     0.073     2.048     2.238
    60   7 N        2.629    -0.342    28.816     7.973
    61   1 H        0.860     0.176     1.239     1.743
    62   6 C        3.786     0.033    20.029     6.374
    63   1 H        0.925     0.081     1.965     2.192
    64   6 C        3.819    -0.075    21.910     6.662
    65   1 H        0.925     0.075     2.032     2.229
    66   1 H        0.925     0.061     2.189     2.314
    67   6 C        2.969     0.010    27.795     8.648
    68   6 C        2.915    -0.045    29.126     8.850
    69   1 H        0.925     0.054     2.266     2.354
    70   6 C        2.915    -0.040    28.987     8.829
    71   1 H        0.926     0.049     2.331     2.388
    72   6 C        2.906    -0.042    29.038     8.836
    73   1 H        0.926     0.043     2.403     2.424
    74   6 C        2.918    -0.033    28.824     8.804
    75   1 H        0.925     0.020     2.726     2.582
    76   6 C        2.905    -0.034    28.854     8.808
    77   1 H        0.925     0.015     2.812     2.623
    78   6 C        2.756     0.268    22.483     7.765
    79   8 O        0.866    -0.521    24.256     6.603
    80   7 N        2.694    -0.162    24.512     7.353
    81   1 H        0.860     0.213     1.043     1.600
    82   6 C        3.792     0.052    19.717     6.324
    83   1 H        0.924     0.094     1.841     2.122
    84   6 C        3.805    -0.081    22.045     6.684
    85   1 H        0.925     0.042     2.422     2.434
    86   1 H        0.924     0.063     2.162     2.300
    87   6 C        2.688     0.363    20.844     7.472
    88   8 O        0.857    -0.648    27.335     7.010
    89   8 O        0.857    -0.637    27.036     6.971
    90   6 C        2.761     0.210    23.550     7.947
    91   8 O        0.856    -0.371    21.107     6.160
    92   7 N        2.633    -0.332    28.556     7.937
    93   1 H        0.860     0.187     1.173     1.697
    94   6 C        3.785     0.046    19.812     6.340
    95   1 H        0.924     0.070     2.084     2.258
    96   6 C        3.813    -0.077    21.957     6.670
    97   1 H        0.924     0.065     2.147     2.291
    98   1 H        0.925     0.085     1.931     2.173
    99   6 C        2.964     0.012    27.750     8.641
   100   6 C        2.908    -0.044    29.087     8.843
   101   1 H        0.925     0.045     2.388     2.416
   102   6 C        2.926    -0.037    28.921     8.819
   103   1 H        0.926     0.030     2.589     2.516
   104   6 C        2.905    -0.037    28.915     8.817
   105   1 H        0.926     0.022     2.698     2.569
   106   6 C        2.911    -0.035    28.878     8.812
   107   1 H        0.925     0.033     2.544     2.494
   108   6 C        2.920    -0.043    29.066     8.841
   109   1 H        0.925     0.047     2.352     2.399
   110   6 C        2.758     0.207    23.614     7.958
   111   8 O        0.856    -0.376    21.211     6.175
   112   7 N        2.633    -0.344    28.857     7.978
   113   1 H        0.860     0.189     1.165     1.691
   114   6 C        3.786     0.027    20.134     6.391
   115   1 H        0.925     0.092     1.858     2.131
   116   6 C        3.807    -0.060    21.649     6.624
   117   1 H        0.924     0.065     2.147     2.291
   118   1 H        0.925     0.043     2.411     2.428
   119   6 C        3.803    -0.098    22.364     6.733
   120   1 H        0.925     0.074     2.040     2.234
   121   1 H        0.925     0.071     2.073     2.251
   122   6 C        2.743     0.292    22.040     7.687
   123   8 O        0.864    -0.548    24.863     6.685
   124   7 N        2.639    -0.280    27.232     7.750
   125   1 H        0.860     0.234     0.949     1.526
   126   1 H        0.860     0.244     0.907     1.492
   127   6 C        2.754     0.270    22.439     7.757
   128   8 O        0.860    -0.512    24.046     6.575
   129   7 N        2.688    -0.171    24.692     7.380
   130   1 H        0.860     0.218     1.017     1.580
   131   6 C        3.794     0.028    20.117     6.387
   132   1 H        0.925     0.078     2.004     2.214
   133   6 C        3.810    -0.050    21.465     6.595
   134   1 H        0.925     0.046     2.375     2.410
   135   1 H        0.925     0.048     2.341     2.393
   136   6 C        3.804    -0.097    22.340     6.729
   137   1 H        0.925     0.052     2.300     2.371
   138   1 H        0.925     0.040     2.444     2.445
   139   6 C        2.687     0.367    20.772     7.459
   140   8 O        0.857    -0.644    27.224     6.995
   141   8 O        0.856    -0.646    27.288     7.004
   142   6 C        2.751     0.268    22.473     7.763
   143   8 O        0.859    -0.515    24.117     6.584
   144   7 N        2.687    -0.161    24.478     7.348
   145   1 H        0.860     0.210     1.057     1.610
   146   6 C        3.798     0.026    20.144     6.391
   147   1 H        0.925     0.060     2.194     2.317
   148   6 C        3.855    -0.023    20.938     6.508
   149   1 H        0.924     0.052     2.298     2.370
   150   6 C        3.760    -0.110    22.656     6.786
   151   1 H        0.925     0.032     2.565     2.504
   152   1 H        0.924     0.056     2.246     2.344
   153   1 H        0.925     0.038     2.479     2.462
   154   6 C        3.765    -0.122    22.871     6.817
   155   1 H        0.925     0.044     2.402     2.424
   156   1 H        0.925     0.046     2.373     2.409
   157   1 H        0.924     0.057     2.234     2.337
   158   6 C        2.754     0.274    22.374     7.746
   159   8 O        0.858    -0.498    23.740     6.533
   160   7 N        2.688    -0.155    24.358     7.330
   161   1 H        0.860     0.207     1.073     1.622
   162   6 C        3.802     0.021    20.214     6.401
   163   1 H        0.924     0.081     1.965     2.192
   164   6 C        3.861    -0.030    21.061     6.526
   165   1 H        0.925     0.077     2.012     2.218
   166   6 C        3.757    -0.125    22.957     6.831
   167   1 H        0.924     0.060     2.202     2.321
   168   1 H        0.925     0.028     2.614     2.528
   169   1 H        0.925     0.061     2.185     2.311
   170   6 C        3.802    -0.063    21.708     6.633
   171   1 H        0.925     0.039     2.460     2.453
   172   1 H        0.924     0.026     2.638     2.540
   173   6 C        3.750    -0.118    22.829     6.814
   174   1 H        0.924     0.056     2.252     2.347
   175   1 H        0.925     0.043     2.413     2.429
   176   1 H        0.925     0.043     2.414     2.430
   177   6 C        2.760     0.277    22.314     7.736
   178   8 O        0.859    -0.503    23.859     6.549
   179   7 N        2.694    -0.177    24.836     7.402
   180   1 H        0.860     0.235     0.942     1.521
   181   6 C        3.796     0.033    20.019     6.371
   182   1 H        0.925     0.092     1.856     2.130
   183   6 C        3.814    -0.086    22.134     6.696
   184   1 H        0.925     0.083     1.951     2.184
   185   1 H        0.925     0.085     1.924     2.169
   186   6 C        3.799    -0.073    21.903     6.663
   187   1 H        0.924     0.069     2.096     2.264
   188   1 H        0.924     0.057     2.239     2.340
   189   6 C        3.739    -0.027    21.133     6.559
   190   1 H        0.925     0.090     1.879     2.143
   191   1 H        0.924     0.090     1.877     2.142
   192   7 N        2.694    -0.139    24.001     7.276
   193   1 H        0.860     0.230     0.965     1.539
   194   6 C        2.734     0.238    23.020     7.855
   195   7 N        2.650    -0.263    26.830     7.693
   196   1 H        0.860     0.256     0.860     1.453
   197   1 H        0.860     0.260     0.844     1.439
   198   7 N        2.647    -0.283    27.311     7.762
   199   1 H        0.860     0.257     0.857     1.450
   200   1 H        0.860     0.267     0.822     1.420
   201   6 C        2.757     0.214    23.474     7.934
   202   8 O        0.857    -0.376    21.210     6.175
   203   7 N        2.633    -0.337    28.680     7.954
   204   1 H        0.860     0.184     1.194     1.711
   205   6 C        3.784     0.040    19.912     6.356
   206   1 H        0.924     0.094     1.836     2.119
   207   6 C        3.812    -0.067    21.766     6.641
   208   1 H        0.925     0.060     2.200     2.319
   209   1 H        0.925     0.058     2.222     2.331
   210   6 C        2.961     0.005    27.920     8.667
   211   6 C        2.918    -0.039    28.961     8.825
   212   1 H        0.926     0.044     2.399     2.422
   213   6 C        2.907    -0.073    29.811     8.953
   214   1 H        0.926     0.020     2.726     2.582
   215   6 C        2.833     0.133    25.085     8.207
   216   8 O        1.660    -0.440    21.636     6.279
   217   1 H        0.806     0.335     0.624     1.240
   218   6 C        2.917    -0.063    29.566     8.916
   219   1 H        0.926     0.052     2.294     2.368
   220   6 C        2.910    -0.043    29.076     8.842
   221   1 H        0.926     0.064     2.149     2.292
   222   6 C        2.757     0.202    23.710     7.974
   223   8 O        0.857    -0.381    21.314     6.190
   224   7 N        2.632    -0.306    27.870     7.841
   225   1 H        0.860     0.194     1.136     1.670
   226   6 C        3.736    -0.025    21.102     6.555
   227   1 H        0.924     0.086     1.919     2.167
   228   1 H        0.924     0.090     1.882     2.146
   229   6 C        2.753     0.278    22.287     7.731
   230   8 O        0.859    -0.502    23.825     6.544
   231   7 N        2.689    -0.162    24.496     7.351
   232   1 H        0.860     0.234     0.946     1.524
   233   6 C        3.798     0.034    19.999     6.368
   234   1 H        0.925     0.076     2.023     2.224
   235   6 C        3.812    -0.068    21.786     6.644
   236   1 H        0.925     0.072     2.061     2.245
   237   1 H        0.925     0.067     2.120     2.277
   238   6 C        3.086     0.040    27.006     8.519
   239   7 N        1.927    -0.326    29.307     8.027
   240   6 C        3.028     0.081    26.171     8.391
   241   1 H        0.925     0.051     2.303     2.373
   242   7 N        2.794    -0.094    23.072     7.134
   243   1 H        0.860     0.230     0.966     1.540
   244   6 C        3.015    -0.039    28.954     8.827
   245   1 H        0.926     0.065     2.142     2.289
   246   6 C        2.764     0.200    23.751     7.981
   247   8 O        0.856    -0.341    20.539     6.076
   248   7 N        2.631    -0.340    28.747     7.963
   249   1 H        0.860     0.184     1.192     1.710
   250   6 C        3.787     0.021    20.243     6.408
   251   1 H        0.924     0.075     2.030     2.228
   252   6 C        3.856    -0.017    20.840     6.493
   253   1 H        0.925     0.055     2.263     2.353
   254   6 C        3.752    -0.119    22.840     6.815
   255   1 H        0.925     0.063     2.166     2.301
   256   1 H        0.924     0.046     2.366     2.405
   257   1 H        0.925     0.050     2.316     2.380
   258   6 C        3.805    -0.060    21.655     6.625
   259   1 H        0.925     0.036     2.505     2.475
   260   1 H        0.924     0.035     2.511     2.478
   261   6 C        3.750    -0.106    22.586     6.778
   262   1 H        0.924     0.038     2.473     2.459
   263   1 H        0.925     0.037     2.493     2.469
   264   1 H        0.924     0.023     2.690     2.565
   265   6 C        2.754     0.266    22.503     7.768
   266   8 O        0.862    -0.515    24.123     6.585
   267   7 N        2.696    -0.159    24.433     7.341
   268   1 H        0.860     0.234     0.949     1.526
   269   6 C        3.801     0.024    20.168     6.394
   270   1 H        0.925     0.093     1.851     2.128
   271   6 C        3.864    -0.019    20.877     6.498
   272   1 H        0.925     0.064     2.151     2.294
   273   6 C        3.763    -0.124    22.921     6.824
   274   1 H        0.924     0.053     2.279     2.361
   275   1 H        0.925     0.051     2.307     2.375
   276   1 H        0.925     0.042     2.427     2.436
   277   6 C        3.810    -0.059    21.624     6.619
   278   1 H        0.923     0.038     2.477     2.462
   279   1 H        0.925     0.044     2.401     2.423
   280   6 C        3.756    -0.107    22.602     6.779
   281   1 H        0.925     0.030     2.593     2.518
   282   1 H        0.924     0.036     2.501     2.473
   283   1 H        0.924     0.029     2.603     2.523
   284   6 C        2.760     0.206    23.629     7.960
   285   8 O        0.856    -0.365    20.988     6.142
   286   1 H        0.860     0.212     1.044     1.601
   287   1 H        0.923     0.062     2.171     2.304
   288   1 H        0.860     0.204     1.086     1.633
   289   1 H        0.923     0.056     2.252     2.347
   290   1 H        0.860     0.179     1.221     1.731
   291   1 H        0.923     0.070     2.083     2.257
   292   1 H        0.860     0.208     1.067     1.618
   293   1 H        0.923     0.087     1.909     2.161
   294   1 H        0.860     0.207     1.073     1.622
   295   1 H        0.923     0.084     1.937     2.176
   296   1 H        0.860     0.200     1.105     1.646
   297   1 H        0.923     0.078     1.998     2.211

 Mol. C6AA /au·bohr⁶  :     894836.832346
 Mol. C8AA /au·bohr⁸  :   20727569.556199
 Mol. α(0) /au        :       1440.845615


Wiberg/Mayer (AO) data.
largest (>0.10) Wiberg bond orders for each atom

 ---------------------------------------------------------------------------
     #   Z sym  total        # sym  WBO       # sym  WBO       # sym  WBO
 ---------------------------------------------------------------------------
     1   6 C    3.879 --    17 O    1.670     2 N    1.175    21 C    0.938
     2   7 N    3.481 --     3 C    1.188     1 C    1.175    33 H    0.876
                            17 O    0.139
     3   6 C    3.492 --     2 N    1.188    14 C    1.091     5 C    1.030
     4   6 C    3.919 --    15 C    1.005    34 H    0.972    35 H    0.967
                            12 O    0.941
     5   6 C    3.969 --     3 C    1.030     6 C    0.965    36 H    0.956
                            37 H    0.940
     6   6 C    3.951 --     7 C    1.416    11 C    1.416     5 C    0.965
                             9 C    0.105
     7   6 C    3.985 --     8 C    1.427     6 C    1.416    38 H    0.969
                            10 C    0.118
     8   6 C    3.984 --     9 C    1.453     7 C    1.427    39 H    0.966
                            11 C    0.109
     9   6 C    3.987 --     8 C    1.453    10 C    1.425    40 H    0.963
                             6 C    0.105
    10   6 C    3.986 --    11 C    1.442     9 C    1.425    41 H    0.970
                             7 C    0.118
    11   6 C    3.988 --    10 C    1.442     6 C    1.416    42 H    0.968
                             8 C    0.109
    12   8 O    2.244 --    14 C    1.096     4 C    0.941    13 O    0.146
    13   8 O    1.867 --    14 C    1.594    12 O    0.146
    14   6 C    3.858 --    13 O    1.594    12 O    1.096     3 C    1.091
    15   6 C    3.987 --     4 C    1.005    43 H    0.989    45 H    0.989
                            44 H    0.983
    16   6 C    3.965 --    18 C    1.007    22 N    0.985    46 H    0.967
                            47 H    0.959
    17   8 O    1.923 --     1 C    1.670     2 N    0.139
    18   6 C    3.975 --    16 C    1.007    19 S    0.987    48 H    0.972
                            49 H    0.967
    19  16 S    2.095 --    20 C    0.989    18 C    0.987
    20   6 C    3.965 --    21 C    0.994    19 S    0.989    50 H    0.965
                            51 H    0.957
    21   6 C    3.965 --    20 C    0.994    22 N    0.978     1 C    0.938
                            52 H    0.926
    22   7 N    3.181 --    16 C    0.985    21 C    0.978    23 S    0.890
    23  16 S    4.822 --    31 O    1.572    30 O    1.533    22 N    0.890
                            24 C    0.730
    24   6 C    3.942 --    25 C    1.410    29 C    1.408    23 S    0.730
    25   6 C    3.981 --    26 C    1.437    24 C    1.410    53 H    0.964
                            28 C    0.108
    26   6 C    3.982 --    25 C    1.437    27 C    1.402    54 H    0.961
                            29 C    0.105
    27   6 C    3.979 --    26 C    1.402    28 C    1.401    32 C    1.030
    28   6 C    3.983 --    29 C    1.441    27 C    1.401    55 H    0.965
                            25 C    0.108
    29   6 C    3.985 --    28 C    1.441    24 C    1.408    56 H    0.967
                            26 C    0.105
    30   8 O    1.836 --    23 S    1.533    31 O    0.104
    31   8 O    1.864 --    23 S    1.572    30 O    0.104
    32   6 C    3.984 --    27 C    1.030    58 H    0.981    59 H    0.962
                            57 H    0.961
    33   1 H    0.942 --     2 N    0.876
    34   1 H    0.995 --     4 C    0.972
    35   1 H    0.991 --     4 C    0.967
    36   1 H    0.991 --     5 C    0.956
    37   1 H    0.973 --     5 C    0.940
    38   1 H    0.998 --     7 C    0.969
    39   1 H    0.995 --     8 C    0.966
    40   1 H    0.996 --     9 C    0.963
    41   1 H    0.998 --    10 C    0.970
    42   1 H    0.999 --    11 C    0.968
    43   1 H    0.998 --    15 C    0.989
    44   1 H    0.996 --    15 C    0.983
    45   1 H    0.996 --    15 C    0.989
    46   1 H    0.998 --    16 C    0.967
    47   1 H    0.996 --    16 C    0.959
    48   1 H    0.995 --    18 C    0.972
    49   1 H    0.992 --    18 C    0.967
    50   1 H    0.990 --    20 C    0.965
    51   1 H    0.989 --    20 C    0.957
    52   1 H    0.988 --    21 C    0.926
    53   1 H    0.996 --    25 C    0.964
    54   1 H    0.993 --    26 C    0.961
    55   1 H    0.993 --    28 C    0.965
    56   1 H    0.996 --    29 C    0.967
    57   1 H    0.992 --    32 C    0.961
    58   1 H    0.996 --    32 C    0.981
    59   1 H    0.994 --    32 C    0.962
    60   7 N    2.996 --    62 C    1.033    61 H    0.953   286 H    0.941
    61   1 H    0.969 --    60 N    0.953
    62   6 C    3.971 --    60 N    1.033    64 C    0.950    63 H    0.945
                            78 C    0.939
    63   1 H    0.992 --    62 C    0.945
    64   6 C    3.975 --    67 C    1.010    65 H    0.965    62 C    0.950
                            66 H    0.945
    65   1 H    0.993 --    64 C    0.965
    66   1 H    0.995 --    64 C    0.945
    67   6 C    3.986 --    68 C    1.416    76 C    1.401    64 C    1.010
                            72 C    0.109
    68   6 C    3.983 --    70 C    1.437    67 C    1.416    69 H    0.966
                            74 C    0.110
    69   1 H    0.997 --    68 C    0.966
    70   6 C    3.988 --    72 C    1.442    68 C    1.437    71 H    0.970
                            76 C    0.110
    71   1 H    0.997 --    70 C    0.970
    72   6 C    3.985 --    70 C    1.442    74 C    1.427    73 H    0.965
                            67 C    0.109
    73   1 H    0.998 --    72 C    0.965
    74   6 C    3.991 --    76 C    1.452    72 C    1.427    75 H    0.972
                            68 C    0.110
    75   1 H    0.999 --    74 C    0.972
    76   6 C    3.989 --    74 C    1.452    67 C    1.401    77 H    0.965
                            70 C    0.110
    77   1 H    1.000 --    76 C    0.965
    78   6 C    3.922 --    79 O    1.601    80 N    1.302    62 C    0.939
    79   8 O    1.900 --    78 C    1.601    80 N    0.185
    80   7 N    3.471 --    78 C    1.302    82 C    0.991    81 H    0.912
                            79 O    0.185
    81   1 H    0.954 --    80 N    0.912
    82   6 C    3.973 --    90 C    0.999    80 N    0.991    84 C    0.950
                            83 H    0.930
    83   1 H    0.991 --    82 C    0.930
    84   6 C    3.978 --    85 H    0.975    86 H    0.954    82 C    0.950
                            87 C    0.931
    85   1 H    0.998 --    84 C    0.975
    86   1 H    0.996 --    84 C    0.954
    87   6 C    3.935 --    89 O    1.503    88 O    1.480    84 C    0.931
    88   8 O    1.764 --    87 C    1.480    89 O    0.216
    89   8 O    1.790 --    87 C    1.503    88 O    0.216
    90   6 C    3.892 --    91 O    1.884    82 C    0.999   287 H    0.943
    91   8 O    2.037 --    90 C    1.884
    92   7 N    2.991 --    94 C    1.030    93 H    0.950   288 H    0.945
    93   1 H    0.965 --    92 N    0.950
    94   6 C    3.977 --    92 N    1.030   110 C    0.975    95 H    0.957
                            96 C    0.926
    95   1 H    0.995 --    94 C    0.957
    96   6 C    3.971 --    99 C    1.008    97 H    0.969    98 H    0.959
                            94 C    0.926
    97   1 H    0.996 --    96 C    0.969
    98   1 H    0.992 --    96 C    0.959
    99   6 C    3.984 --   108 C    1.412   100 C    1.411    96 C    1.008
                           104 C    0.106
   100   6 C    3.985 --   102 C    1.439    99 C    1.411   101 H    0.968
                           106 C    0.113
   101   1 H    0.998 --   100 C    0.968
   102   6 C    3.989 --   100 C    1.439   104 C    1.438   103 H    0.972
                           108 C    0.111
   103   1 H    0.999 --   102 C    0.972
   104   6 C    3.987 --   102 C    1.438   106 C    1.438   105 H    0.973
                            99 C    0.106
   105   1 H    0.999 --   104 C    0.973
   106   6 C    3.989 --   108 C    1.441   104 C    1.438   107 H    0.971
                           100 C    0.113
   107   1 H    0.999 --   106 C    0.971
   108   6 C    3.987 --   106 C    1.441    99 C    1.412   109 H    0.969
                           102 C    0.111
   109   1 H    0.998 --   108 C    0.969
   110   6 C    3.873 --   111 O    1.894    94 C    0.975   289 H    0.939
   111   8 O    2.037 --   110 C    1.894
   112   7 N    2.999 --   114 C    1.021   290 H    0.952   113 H    0.950
   113   1 H    0.964 --   112 N    0.950
   114   6 C    3.973 --   112 N    1.021   116 C    0.984   115 H    0.940
                           127 C    0.934
   115   1 H    0.991 --   114 C    0.940
   116   6 C    3.982 --   119 C    0.992   114 C    0.984   118 H    0.976
                           117 H    0.965
   117   1 H    0.995 --   116 C    0.965
   118   1 H    0.998 --   116 C    0.976
   119   6 C    3.988 --   116 C    0.992   122 C    0.970   121 H    0.968
                           120 H    0.966
   120   1 H    0.994 --   119 C    0.966
   121   1 H    0.994 --   119 C    0.968
   122   6 C    3.938 --   123 O    1.612   124 N    1.330   119 C    0.970
   123   8 O    1.901 --   122 C    1.612   124 N    0.195
   124   7 N    3.403 --   122 C    1.330   125 H    0.921   126 H    0.918
                           123 O    0.195
   125   1 H    0.945 --   124 N    0.921
   126   1 H    0.940 --   124 N    0.918
   127   6 C    3.924 --   128 O    1.629   129 N    1.284   114 C    0.934
   128   8 O    1.923 --   127 C    1.629   129 N    0.184
   129   7 N    3.463 --   127 C    1.284   131 C    0.989   130 H    0.915
                           128 O    0.184
   130   1 H    0.952 --   129 N    0.915
   131   6 C    3.967 --   129 N    0.989   133 C    0.977   132 H    0.941
                           142 C    0.934
   132   1 H    0.993 --   131 C    0.941
   133   6 C    3.989 --   136 C    1.003   131 C    0.977   135 H    0.975
                           134 H    0.970
   134   1 H    0.997 --   133 C    0.970
   135   1 H    0.998 --   133 C    0.975
   136   6 C    3.965 --   133 C    1.003   138 H    0.967   137 H    0.966
                           139 C    0.924
   137   1 H    0.997 --   136 C    0.966
   138   1 H    0.998 --   136 C    0.967
   139   6 C    3.925 --   140 O    1.491   141 O    1.487   136 C    0.924
   140   8 O    1.768 --   139 C    1.491   141 O    0.212
   141   8 O    1.765 --   139 C    1.487   140 O    0.212
   142   6 C    3.949 --   143 O    1.620   144 N    1.310   131 C    0.934
   143   8 O    1.934 --   142 C    1.620   144 N    0.197
   144   7 N    3.479 --   142 C    1.310   146 C    0.983   145 H    0.906
                           143 O    0.197
   145   1 H    0.956 --   144 N    0.906
   146   6 C    3.963 --   144 N    0.983   148 C    0.959   147 H    0.944
                           158 C    0.944
   147   1 H    0.996 --   146 C    0.944
   148   6 C    3.990 --   150 C    1.006   154 C    1.003   149 H    0.964
                           146 C    0.959
   149   1 H    0.997 --   148 C    0.964
   150   6 C    3.993 --   148 C    1.006   151 H    0.986   153 H    0.985
                           152 H    0.983
   151   1 H    0.999 --   150 C    0.986
   152   1 H    0.996 --   150 C    0.983
   153   1 H    0.999 --   150 C    0.985
   154   6 C    3.994 --   148 C    1.003   155 H    0.986   157 H    0.985
                           156 H    0.985
   155   1 H    0.998 --   154 C    0.986
   156   1 H    0.998 --   154 C    0.985
   157   1 H    0.997 --   154 C    0.985
   158   6 C    3.957 --   159 O    1.621   160 N    1.316   146 C    0.944
   159   8 O    1.938 --   158 C    1.621   160 N    0.197
   160   7 N    3.476 --   158 C    1.316   162 C    0.972   161 H    0.912
                           159 O    0.197
   161   1 H    0.957 --   160 N    0.912
   162   6 C    3.957 --   160 N    0.972   164 C    0.970   177 C    0.940
                           163 H    0.937
   163   1 H    0.993 --   162 C    0.937
   164   6 C    3.985 --   166 C    1.003   170 C    0.995   162 C    0.970
                           165 H    0.958
   165   1 H    0.993 --   164 C    0.958
   166   6 C    3.989 --   164 C    1.003   167 H    0.980   169 H    0.980
                           168 H    0.978
   167   1 H    0.996 --   166 C    0.980
   168   1 H    0.999 --   166 C    0.978
   169   1 H    0.995 --   166 C    0.980
   170   6 C    3.996 --   173 C    1.017   164 C    0.995   171 H    0.976
                           172 H    0.974
   171   1 H    0.998 --   170 C    0.976
   172   1 H    0.999 --   170 C    0.974
   173   6 C    3.993 --   170 C    1.017   176 H    0.987   175 H    0.986
                           174 H    0.984
   174   1 H    0.997 --   173 C    0.984
   175   1 H    0.998 --   173 C    0.986
   176   1 H    0.998 --   173 C    0.987
   177   6 C    3.949 --   178 O    1.644   179 N    1.287   162 C    0.940
   178   8 O    1.962 --   177 C    1.644   179 N    0.196
   179   7 N    3.451 --   177 C    1.287   181 C    0.975   180 H    0.910
                           178 O    0.196
   180   1 H    0.945 --   179 N    0.910
   181   6 C    3.959 --   201 C    0.981   179 N    0.975   183 C    0.959
                           182 H    0.944
   182   1 H    0.991 --   181 C    0.944
   183   6 C    3.976 --   186 C    1.004   184 H    0.968   185 H    0.968
                           181 C    0.959
   184   1 H    0.993 --   183 C    0.968
   185   1 H    0.993 --   183 C    0.968
   186   6 C    3.989 --   189 C    1.007   183 C    1.004   188 H    0.975
                           187 H    0.973
   187   1 H    0.995 --   186 C    0.973
   188   1 H    0.997 --   186 C    0.975
   189   6 C    3.957 --   186 C    1.007   192 N    0.984   191 H    0.960
                           190 H    0.958
   190   1 H    0.992 --   189 C    0.958
   191   1 H    0.992 --   189 C    0.960
   192   7 N    3.470 --   194 C    1.318   189 C    0.984   193 H    0.915
                           195 N    0.103
   193   1 H    0.947 --   192 N    0.915
   194   6 C    3.975 --   195 N    1.324   192 N    1.318   198 N    1.300
   195   7 N    3.390 --   194 C    1.324   197 H    0.913   196 H    0.910
                           192 N    0.103
   196   1 H    0.934 --   195 N    0.910
   197   1 H    0.932 --   195 N    0.913
   198   7 N    3.355 --   194 C    1.300   199 H    0.914   200 H    0.908
   199   1 H    0.934 --   198 N    0.914
   200   1 H    0.929 --   198 N    0.908
   201   6 C    3.883 --   202 O    1.896   181 C    0.981   291 H    0.935
   202   8 O    2.046 --   201 C    1.896
   203   7 N    2.981 --   205 C    1.032   204 H    0.947   292 H    0.941
   204   1 H    0.966 --   203 N    0.947
   205   6 C    3.976 --   203 N    1.032   222 C    0.985   207 C    0.957
                           206 H    0.908
   206   1 H    0.979 --   205 C    0.908
   207   6 C    3.985 --   210 C    1.005   209 H    0.967   208 H    0.958
                           205 C    0.957
   208   1 H    0.995 --   207 C    0.958
   209   1 H    0.995 --   207 C    0.967
   210   6 C    3.984 --   220 C    1.413   211 C    1.398   207 C    1.005
   211   6 C    3.988 --   213 C    1.460   210 C    1.398   212 H    0.969
                           218 C    0.106
   212   1 H    0.998 --   211 C    0.969
   213   6 C    3.986 --   211 C    1.460   215 C    1.361   214 H    0.966
                           220 C    0.106
   214   1 H    0.999 --   213 C    0.966
   215   6 C    3.929 --   218 C    1.373   213 C    1.361   216 O    1.061
   216   8 O    2.078 --   215 C    1.061   217 H    0.864
   217   1 H    0.887 --   216 O    0.864
   218   6 C    3.981 --   220 C    1.442   215 C    1.373   219 H    0.960
                           211 C    0.106
   219   1 H    0.997 --   218 C    0.960
   220   6 C    3.985 --   218 C    1.442   210 C    1.413   221 H    0.964
                           213 C    0.106
   221   1 H    0.995 --   220 C    0.964
   222   6 C    3.868 --   223 O    1.872   205 C    0.985   293 H    0.930
   223   8 O    2.045 --   222 C    1.872
   224   7 N    2.978 --   226 C    1.037   294 H    0.943   225 H    0.938
   225   1 H    0.962 --   224 N    0.938
   226   6 C    3.958 --   224 N    1.037   228 H    0.952   227 H    0.952
                           229 C    0.930
   227   1 H    0.974 --   226 C    0.952
   228   1 H    0.991 --   226 C    0.952
   229   6 C    3.917 --   230 O    1.637   231 N    1.290   226 C    0.930
   230   8 O    1.938 --   229 C    1.637   231 N    0.191
   231   7 N    3.455 --   229 C    1.290   233 C    0.978   232 H    0.903
                           230 O    0.191
   232   1 H    0.945 --   231 N    0.903
   233   6 C    3.970 --   246 C    0.988   231 N    0.978   234 H    0.953
                           235 C    0.939
   234   1 H    0.994 --   233 C    0.953
   235   6 C    3.988 --   238 C    1.012   236 H    0.963   237 H    0.957
                           233 C    0.939
   236   1 H    0.994 --   235 C    0.963
   237   1 H    0.995 --   235 C    0.957
   238   6 C    3.971 --   244 C    1.558   239 N    1.274   235 C    1.012
   239   7 N    2.992 --   240 C    1.523   238 C    1.274   242 N    0.103
   240   6 C    3.958 --   239 N    1.523   242 N    1.294   241 H    0.964
                           244 C    0.118
   241   1 H    0.997 --   240 C    0.964
   242   7 N    3.597 --   240 C    1.294   244 C    1.211   243 H    0.917
                           239 N    0.103
   243   1 H    0.947 --   242 N    0.917
   244   6 C    3.935 --   238 C    1.558   242 N    1.211   245 H    0.959
                           240 C    0.118
   245   1 H    0.996 --   244 C    0.959
   246   6 C    3.883 --   247 O    1.887   233 C    0.988   295 H    0.937
   247   8 O    2.082 --   246 C    1.887
   248   7 N    2.962 --   250 C    1.016   296 H    0.944   249 H    0.938
   249   1 H    0.966 --   248 N    0.938
   250   6 C    3.956 --   248 N    1.016   251 H    0.948   252 C    0.946
                           265 C    0.937
   251   1 H    0.988 --   250 C    0.948
   252   6 C    3.967 --   254 C    1.007   258 C    0.997   253 H    0.958
                           250 C    0.946
   253   1 H    0.995 --   252 C    0.958
   254   6 C    3.990 --   252 C    1.007   257 H    0.978   255 H    0.978
                           256 H    0.976
   255   1 H    0.995 --   254 C    0.978
   256   1 H    0.998 --   254 C    0.976
   257   1 H    0.997 --   254 C    0.978
   258   6 C    3.990 --   261 C    1.010   252 C    0.997   259 H    0.978
                           260 H    0.959
   259   1 H    0.998 --   258 C    0.978
   260   1 H    0.999 --   258 C    0.959
   261   6 C    3.991 --   258 C    1.010   262 H    0.986   264 H    0.986
                           263 H    0.985
   262   1 H    0.998 --   261 C    0.986
   263   1 H    0.999 --   261 C    0.985
   264   1 H    0.999 --   261 C    0.986
   265   6 C    3.939 --   266 O    1.614   267 N    1.308   250 C    0.937
   266   8 O    1.920 --   265 C    1.614   267 N    0.192
Note: The following floating-point exceptions are signalling: IEEE_UNDERFLOW_FLAG IEEE_DENORMAL
normal termination of xtb
   267   7 N    3.474 --   265 C    1.308   269 C    0.969   268 H    0.885
                           266 O    0.192
   268   1 H    0.945 --   267 N    0.885
   269   6 C    3.961 --   284 C    0.982   267 N    0.969   270 H    0.953
                           271 C    0.948
   270   1 H    0.991 --   269 C    0.953
   271   6 C    3.987 --   273 C    1.004   277 C    0.998   272 H    0.960
                           269 C    0.948
   272   1 H    0.996 --   271 C    0.960
   273   6 C    3.992 --   271 C    1.004   274 H    0.984   275 H    0.983
                           276 H    0.982
   274   1 H    0.997 --   273 C    0.984
   275   1 H    0.997 --   273 C    0.983
   276   1 H    0.998 --   273 C    0.982
   277   6 C    3.991 --   280 C    1.013   271 C    0.998   279 H    0.972
                           278 H    0.966
   278   1 H    0.999 --   277 C    0.966
   279   1 H    0.998 --   277 C    0.972
   280   6 C    3.995 --   277 C    1.013   283 H    0.987   282 H    0.982
                           281 H    0.978
   281   1 H    0.998 --   280 C    0.978
   282   1 H    0.999 --   280 C    0.982
   283   1 H    0.999 --   280 C    0.987
   284   6 C    3.882 --   285 O    1.892   269 C    0.982   297 H    0.937
   285   8 O    2.052 --   284 C    1.892
   286   1 H    0.955 --    60 N    0.941
   287   1 H    0.995 --    90 C    0.943
   288   1 H    0.958 --    92 N    0.945
   289   1 H    0.993 --   110 C    0.939
   290   1 H    0.968 --   112 N    0.952
   291   1 H    0.995 --   201 C    0.935
   292   1 H    0.956 --   203 N    0.941
   293   1 H    0.988 --   222 C    0.930
   294   1 H    0.957 --   224 N    0.943
   295   1 H    0.992 --   246 C    0.937
   296   1 H    0.959 --   248 N    0.944
   297   1 H    0.993 --   284 C    0.937
 ---------------------------------------------------------------------------

Topologies differ in total number of bonds
Writing topology from bond orders to xtbtopo.mol

molecular dipole:
                 x           y           z       tot (Debye)
 q only:       28.642      -3.663     -38.599
   full:       27.808      -4.139     -37.321     118.765
molecular quadrupole (traceless):
                xx          xy          yy          xz          yz          zz
 q only:     6462.912    1235.215    2351.620    1086.434   -2386.373   -8814.532
  q+dip:     6245.195    1172.854    2269.480    1055.426   -2412.937   -8514.676
   full:     6249.739    1170.292    2270.298    1051.944   -2409.830   -8520.037


           -------------------------------------------------
          | TOTAL ENERGY             -457.553520508833 Eh   |
          | GRADIENT NORM               0.321148775308 Eh/α |
          | HOMO-LUMO GAP               0.269899310647 eV   |
           -------------------------------------------------

------------------------------------------------------------------------
 * finished run on 2026/01/05 at 09:06:59.910     
------------------------------------------------------------------------
 total:
 * wall-time:     0 d,  0 h,  0 min,  3.872 sec
 *  cpu-time:     0 d,  0 h,  0 min, 55.947 sec
 * ratio c/w:    14.450 speedup
 SCF:
 * wall-time:     0 d,  0 h,  0 min,  3.744 sec
 *  cpu-time:     0 d,  0 h,  0 min, 54.353 sec
 * ratio c/w:    14.517 speedup

