      -----------------------------------------------------------      
     |                   =====================                   |     
     |                           x T B                           |     
     |                   =====================                   |     
     |                         S. Grimme                         |     
     |          Mulliken Center for Theoretical Chemistry        |     
     |                    University of Bonn                     |     
      -----------------------------------------------------------      

   * xtb version 6.7.1 (edcfbbe) compiled by 'conda@c0858423619e' on 2025-09-04

   xtb is free software: you can redistribute it and/or modify it under
   the terms of the GNU Lesser General Public License as published by
   the Free Software Foundation, either version 3 of the License, or
   (at your option) any later version.
   
   xtb is distributed in the hope that it will be useful,
   but WITHOUT ANY WARRANTY; without even the implied warranty of
   MERCHANTABILITY or FITNESS FOR A PARTICULAR PURPOSE.  See the
   GNU Lesser General Public License for more details.
   
   Cite this work as:
   * C. Bannwarth, E. Caldeweyher, S. Ehlert, A. Hansen, P. Pracht,
     J. Seibert, S. Spicher, S. Grimme, WIREs Comput. Mol. Sci., 2020, 11,
     e01493. DOI: 10.1002/wcms.1493
   
   for GFN2-xTB:
   * C. Bannwarth, S. Ehlert and S. Grimme., J. Chem. Theory Comput., 2019,
     15, 1652-1671. DOI: 10.1021/acs.jctc.8b01176
   for GFN1-xTB:
   * S. Grimme, C. Bannwarth, P. Shushkov, J. Chem. Theory Comput., 2017,
     13, 1989-2009. DOI: 10.1021/acs.jctc.7b00118
   for GFN0-xTB:
   * P. Pracht, E. Caldeweyher, S. Ehlert, S. Grimme, ChemRxiv, 2019, preprint.
     DOI: 10.26434/chemrxiv.8326202.v1
   for GFN-FF:
   * S. Spicher and S. Grimme, Angew. Chem. Int. Ed., 2020, 59, 15665-15673.
     DOI: 10.1002/anie.202004239
   
   for ALPB and GBSA implicit solvation:
   * S. Ehlert, M. Stahn, S. Spicher, S. Grimme, J. Chem. Theory Comput.,
     2021, 17, 4250-4261. DOI: 10.1021/acs.jctc.1c00471
   
   for ddCOSMO and CPCM-X implicit solvation:
   * M. Stahn, S. Ehlert, S. Grimme, J. Phys. Chem. A,
     2023, XX, XXXX-XXXX. DOI: 10.1021/acs.jpca.3c04382
   
   for DFT-D4:
   * E. Caldeweyher, C. Bannwarth and S. Grimme, J. Chem. Phys., 2017,
     147, 034112. DOI: 10.1063/1.4993215
   * E. Caldeweyher, S. Ehlert, A. Hansen, H. Neugebauer, S. Spicher,
     C. Bannwarth and S. Grimme, J. Chem. Phys., 2019, 150, 154122.
     DOI: 10.1063/1.5090222
   * E. Caldeweyher, J.-M. Mewes, S. Ehlert and S. Grimme, Phys. Chem. Chem. Phys.
     2020, 22, 8499-8512. DOI: 10.1039/D0CP00502A
   
   for sTDA-xTB:
   * S. Grimme and C. Bannwarth, J. Chem. Phys., 2016, 145, 054103.
     DOI: 10.1063/1.4959605
   
   in the mass-spec context:
   * V. Asgeirsson, C. Bauer and S. Grimme, Chem. Sci., 2017, 8, 4879.
     DOI: 10.1039/c7sc00601b
   * J. Koopman and S. Grimme, ACS Omega 2019, 4, 12, 15120-15133.
     DOI: 10.1021/acsomega.9b02011
   
   for metadynamics refer to:
   * S. Grimme, J. Chem. Theory Comput., 2019, 155, 2847-2862
     DOI: 10.1021/acs.jctc.9b00143
   
   for SPH calculations refer to:
   * S. Spicher and S. Grimme, J. Chem. Theory Comput., 2021, 17, 1701-1714
     DOI: 10.1021/acs.jctc.0c01306
   
   for ONIOM refer to:
   * C. Plett, A. Katbashev, S. Ehlert, S. Grimme, M. Bursch,
     Phys. Chem. Chem. Phys., 2023, 25, 17860-17868. DOI: 10.1039/D3CP02178E
   
   for DIPRO refer to:
   * J. Kohn, N. Gildemeister, S. Grimme, D. Fazzi, A. Hansen,
     J. Chem. Phys., 2023, just accepted.
   
   for PTB refer to:
   * S. Grimme, M. Mueller, A. Hansen, J. Chem. Phys., 2023, 158, 124111.
     DOI: 10.1063/5.0137838
   
   with help from (in alphabetical order)
   P. Atkinson, C. Bannwarth, F. Bohle, G. Brandenburg, E. Caldeweyher
   M. Checinski, S. Dohm, S. Ehlert, S. Ehrlich, I. Gerasimov, C. Hölzer
   A. Katbashev, J. Kohn, J. Koopman, C. Lavigne, S. Lehtola, F. März, M. Müller,
   F. Musil, H. Neugebauer, J. Pisarek, C. Plett, P. Pracht, F. Pultar,
   J. Seibert, P. Shushkov, S. Spicher, M. Stahn, M. Steiner, T. Strunk,
   J. Stückrath, T. Rose, and J. Unsleber
   
 * started run on 2026/01/05 at 09:07:54.788     
   ID    Z sym.   atoms
    1    7 N      1, 22, 42, 54, 67, 70, 73, 78, 94, 100, 120, 136, 142, 162,
                  177, 193
    2    1 H      2, 4, 6, 7, 10, 12, 15, 17, 19, 23, 25, 27, 28, 31, 33, 35,
                  37, 39, 43, 45, 47, 48, 55, 57, 59, 60, 62, 63, 65, 66, 68,
                  71, 72, 74, 75, 79, 81, 83, 84, 86, 87, 89, 90, 92, 93,
                  95-97, 101, 103, 105, 106, 109, 111, 113, 115, 117, 121,
                  123, 125, 126, 128, 129, 131, 132, 134, 135, 137-139, 143,
                  145, 147, 148, 151, 153, 155, 157, 159, 163, 165, 167, 168,
                  170, 171, 178, 180, 182, 184-186, 188-190, 194, 196, 198,
                  200-202, 204, 205, 207-209, 212-225
    3    6 C      3, 5, 8, 9, 11, 13, 16, 18, 20, 24, 26, 29, 30, 32, 34, 36,
                  38, 40, 44, 46, 49, 52, 56, 58, 61, 64, 69, 76, 80, 82, 85,
                  88, 91, 98, 102, 104, 107, 108, 110, 112, 114, 116, 118,
                  122, 124, 127, 130, 133, 140, 144, 146, 149, 150, 152, 154,
                  156, 158, 160, 164, 166, 169, 172, 175, 179, 181, 183, 187,
                  191, 195, 197, 199, 203, 206, 210
    4    8 O      14, 21, 41, 50, 51, 53, 77, 99, 119, 141, 161, 173, 174,
                  176, 192, 211

           -------------------------------------------------
          |                Calculation Setup                |
           -------------------------------------------------

          program call               : xtb /home/antonio_mesquita/Documentos/gmx_ISA_project/testes_arquivos_primeiros/gmx_ISA_testes/testes_qm_xtb/QM_analysis/QM_FRAMES_CAPPED/frame_600ps/residues_pocket_capped_600ps.xyz --gfn 2 --alpb water --chrg 1 --etemp 1500 --cycles 1000
          coordinate file            : /home/antonio_mesquita/Documentos/gmx_ISA_project/testes_arquivos_primeiros/gmx_ISA_testes/testes_qm_xtb/QM_analysis/QM_FRAMES_CAPPED/frame_600ps/residues_pocket_capped_600ps.xyz
          omp threads                :                    16


molecular fragmentation (1/2 indicates fragments):
111111111111111111111222222222222222222222222222222222222222222222222222
222222222222222222222222222222222222222222222222222222222222222222222222
222222222222222222222222222222222222222222222222222222222222222222211222
222222222
# atoms in fragment 1/2:    23   202
 fragment masses (1/2) :      165.19     1323.65
CMA distance (Bohr)    :  11.190
constraining FC (au)   :  0.0500

           -------------------------------------------------
          |                 G F N 2 - x T B                 |
           -------------------------------------------------

        Reference                      10.1021/acs.jctc.8b01176
      * Hamiltonian:
        H0-scaling (s, p, d)           1.850000    2.230000    2.230000
        zeta-weighting                 0.500000
      * Dispersion:
        s8                             2.700000
        a1                             0.520000
        a2                             5.000000
        s9                             5.000000
      * Repulsion:
        kExp                           1.500000    1.000000
        rExp                           1.000000
      * Coulomb:
        alpha                          2.000000
        third order                    shell-resolved
        anisotropic                    true
        a3                             3.000000
        a5                             4.000000
        cn-shift                       1.200000
        cn-exp                         4.000000
        max-rad                        5.000000

      * Solvation model:               ALPB
        Solvent                        water
        Parameter file                 internal GFN2-xTB/ALPB
        Dielectric constant                8.0200E+01
        Reference state                gsolv [1 M gas/solution]
        Free energy shift                  1.0808E-03 Eh       6.7819E-01 kcal/mol
        Temperature                        2.9815E+02 K
        Density                            1.0000E+00 kg/L
        Solvent mass                       1.8000E+01 g/mol
        Interaction kernel             P16
        Born radius scaling (c1)           1.4744E+00
        Born radii integrator          GBOBC
        Born offset                        0.0000E+00 a0       0.0000E+00 AA
        H-bond correction              true
        Ion screening                  false
        Surface tension                    1.0000E-05 Eh       1.5569E+01 dyn/cm
        Grid points                               230 per atom

          ...................................................
          :                      SETUP                      :
          :.................................................:
          :  # basis functions                 543          :
          :  # atomic orbitals                 543          :
          :  # shells                          331          :
          :  # electrons                       590          :
          :  max. iterations                   250          :
          :  Hamiltonian                  GFN2-xTB          :
          :  restarted?                      false          :
          :  GBSA solvation                   true          :
          :  PC potential                    false          :
          :  electronic temp.         1500.0000000     K    :
          :  accuracy                    1.0000000          :
          :  -> integral cutoff          0.2500000E+02      :
          :  -> integral neglect         0.1000000E-07      :
          :  -> SCF convergence          0.1000000E-05 Eh   :
          :  -> wf. convergence          0.1000000E-03 e    :
          :  Broyden damping             0.4000000          :
          :  net charge                          1          :
          :  unpaired electrons                  0          :
          ...................................................

 iter      E             dE          RMSdq      gap      omega  full diag
   1   -333.8014847 -0.333801E+03  0.444E+00    1.89       0.0  T
   2   -334.5257929 -0.724308E+00  0.227E+00    1.17       1.0  T
   3   -334.5536187 -0.278258E-01  0.123E+00    1.73       1.0  T
   4   -334.5912475 -0.376288E-01  0.303E-01    1.30       1.0  T
   5   -334.5986610 -0.741348E-02  0.117E-01    1.38       1.0  T
   6   -334.5991017 -0.440732E-03  0.636E-02    1.35       1.0  T
   7   -334.5992431 -0.141356E-03  0.296E-02    1.33       1.0  T
   8   -334.5992851 -0.420522E-04  0.991E-03    1.33       1.0  T
   9   -334.5992903 -0.515361E-05  0.521E-03    1.32       1.3  T
  10   -334.5992913 -0.976587E-06  0.220E-03    1.32       3.0  T
  11   -334.5992915 -0.241594E-06  0.105E-03    1.32       6.4  T
  12   -334.5992916 -0.592807E-07  0.473E-04    1.32      14.1  T
  13   -334.5992916 -0.980936E-08  0.242E-04    1.32      27.6  T

   *** convergence criteria satisfied after 13 iterations ***

         #    Occupation            Energy/Eh            Energy/eV
      -------------------------------------------------------------
         1        2.0000           -0.7410484             -20.1650
       ...           ...                  ...                  ...
       289        1.9988           -0.3518085              -9.5732
       290        1.9961           -0.3462706              -9.4225
       291        1.9957           -0.3457431              -9.4081
       292        1.9939           -0.3441305              -9.3643
       293        1.9928           -0.3432745              -9.3410
       294        1.9919           -0.3427744              -9.3274
       295        1.9902           -0.3418282              -9.3016 (HOMO)
       296        0.0148           -0.2933211              -7.9817 (LUMO)
       297        0.0125           -0.2925317              -7.9602
       298        0.0065           -0.2894180              -7.8755
       299        0.0052           -0.2883486              -7.8464
       300        0.0014           -0.2820698              -7.6755
       ...           ...                  ...                  ...
       543                          0.6356726              17.2975
      -------------------------------------------------------------
                  HL-Gap            0.0485071 Eh            1.3199 eV
             Fermi-level           -0.3165950 Eh           -8.6150 eV

 SCC (total)                   0 d,  0 h,  0 min,  1.485 sec
 SCC setup                      ...        0 min,  0.018 sec (  1.237%)
 Dispersion                     ...        0 min,  0.022 sec (  1.457%)
 classical contributions        ...        0 min,  0.006 sec (  0.384%)
 integral evaluation            ...        0 min,  0.056 sec (  3.736%)
 iterations                     ...        0 min,  1.201 sec ( 80.853%)
 molecular gradient             ...        0 min,  0.177 sec ( 11.914%)
 printout                       ...        0 min,  0.006 sec (  0.417%)

         :::::::::::::::::::::::::::::::::::::::::::::::::::::
         ::                     SUMMARY                     ::
         :::::::::::::::::::::::::::::::::::::::::::::::::::::
         :: total energy            -330.369949969358 Eh    ::
         :: total w/o Gsasa/hb      -330.325307181917 Eh    ::
         :: gradient norm              0.298510758415 Eh/a0 ::
         :: HOMO-LUMO gap              1.319944966826 eV    ::
         ::.................................................::
         :: SCC energy              -334.591214213358 Eh    ::
         :: -> isotropic ES            1.162848538794 Eh    ::
         :: -> anisotropic ES         -0.020477046710 Eh    ::
         :: -> anisotropic XC          0.148758877381 Eh    ::
         :: -> dispersion             -0.226912562943 Eh    ::
         :: -> Gsolv                  -0.485997307305 Eh    ::
         ::    -> Gelec               -0.441354519864 Eh    ::
         ::    -> Gsasa                0.009310294898 Eh    ::
         ::    -> Ghb                 -0.055033842038 Eh    ::
         ::    -> Gshift               0.001080759698 Eh    ::
         :: repulsion energy           4.221264244000 Eh    ::
         :: add. restraining           0.000000000000 Eh    ::
         :: total charge               1.000000001668 e     ::
         :::::::::::::::::::::::::::::::::::::::::::::::::::::

           -------------------------------------------------
          |                Property Printout                |
           -------------------------------------------------

    * Orbital Energies and Occupations

         #    Occupation            Energy/Eh            Energy/eV
      -------------------------------------------------------------
         1        2.0000           -0.7410484             -20.1650
       ...           ...                  ...                  ...
       283        2.0000           -0.3910423             -10.6408
       284        2.0000           -0.3873598             -10.5406
       285        2.0000           -0.3846329             -10.4664
       286        2.0000           -0.3728729             -10.1464
       287        2.0000           -0.3685968             -10.0300
       288        1.9991           -0.3534328              -9.6174
       289        1.9988           -0.3518085              -9.5732
       290        1.9961           -0.3462706              -9.4225
       291        1.9957           -0.3457431              -9.4081
       292        1.9939           -0.3441305              -9.3643
       293        1.9928           -0.3432745              -9.3410
       294        1.9919           -0.3427744              -9.3274
       295        1.9902           -0.3418282              -9.3016 (HOMO)
       296        0.0148           -0.2933211              -7.9817 (LUMO)
       297        0.0125           -0.2925317              -7.9602
       298        0.0065           -0.2894180              -7.8755
       299        0.0052           -0.2883486              -7.8464
       300        0.0014           -0.2820698              -7.6755
       301        0.0005           -0.2772786              -7.5451
       302        0.0005           -0.2770980              -7.5402
       303                         -0.2284074              -6.2153
       304                         -0.2282192              -6.2102
       305                         -0.2277903              -6.1985
       306                         -0.2262931              -6.1577
       ...                                ...                  ...
       543                          0.6356726              17.2975
      -------------------------------------------------------------
                  HL-Gap            0.0485071 Eh            1.3199 eV
             Fermi-level           -0.3165950 Eh           -8.6150 eV

     #   Z          covCN         q      C6AA      α(0)
     1   7 N        2.631    -0.365    29.423     8.056
     2   1 H        0.860     0.171     1.269     1.765
     3   6 C        3.785     0.038    19.957     6.363
     4   1 H        0.925     0.082     1.954     2.186
     5   6 C        3.812    -0.076    21.934     6.666
     6   1 H        0.924     0.071     2.077     2.254
     7   1 H        0.925     0.049     2.331     2.387
     8   6 C        2.954    -0.004    28.117     8.697
     9   6 C        2.921    -0.045    29.122     8.850
    10   1 H        0.926     0.017     2.784     2.609
    11   6 C        2.901    -0.069    29.730     8.940
    12   1 H        0.925     0.022     2.704     2.572
    13   6 C        2.846     0.139    24.972     8.190
    14   8 O        1.660    -0.454    21.923     6.321
    15   1 H        0.809     0.352     0.582     1.198
    16   6 C        2.904    -0.066    29.643     8.927
    17   1 H        0.926     0.063     2.166     2.301
    18   6 C        2.923    -0.044    29.103     8.847
    19   1 H        0.925     0.050     2.318     2.381
    20   6 C        2.759     0.205    23.649     7.964
    21   8 O        0.857    -0.401    21.698     6.245
    22   7 N        2.634    -0.378    29.770     8.103
    23   1 H        0.860     0.154     1.377     1.838
    24   6 C        3.784     0.036    19.991     6.369
    25   1 H        0.924     0.068     2.112     2.273
    26   6 C        3.812    -0.075    21.925     6.665
    27   1 H        0.924     0.065     2.144     2.290
    28   1 H        0.925     0.054     2.273     2.358
    29   6 C        2.960     0.010    27.788     8.646
    30   6 C        2.915    -0.046    29.135     8.851
    31   1 H        0.926     0.047     2.362     2.403
    32   6 C        2.908    -0.042    29.047     8.837
    33   1 H        0.926     0.042     2.428     2.437
    34   6 C        2.911    -0.042    29.031     8.835
    35   1 H        0.925     0.033     2.542     2.493
    36   6 C        2.911    -0.040    29.004     8.831
    37   1 H        0.926     0.029     2.600     2.522
    38   6 C        2.915    -0.042    29.035     8.836
    39   1 H        0.926     0.025     2.658     2.549
    40   6 C        2.751     0.274    22.370     7.745
    41   8 O        0.865    -0.522    24.270     6.605
    42   7 N        2.690    -0.170    24.675     7.377
    43   1 H        0.860     0.209     1.064     1.616
    44   6 C        3.790     0.040    19.913     6.355
    45   1 H        0.924     0.099     1.794     2.095
    46   6 C        3.807    -0.080    22.025     6.681
    47   1 H        0.925     0.035     2.516     2.480
    48   1 H        0.924     0.063     2.159     2.298
    49   6 C        2.688     0.362    20.866     7.476
    50   8 O        0.856    -0.624    26.714     6.930
    51   8 O        0.857    -0.595    25.998     6.836
    52   6 C        2.761     0.210    23.543     7.946
    53   8 O        0.856    -0.371    21.120     6.162
    54   7 N        2.634    -0.381    29.840     8.113
    55   1 H        0.860     0.171     1.269     1.765
    56   6 C        3.786     0.034    20.014     6.372
    57   1 H        0.924     0.073     2.052     2.240
    58   6 C        3.807    -0.068    21.802     6.647
    59   1 H        0.924     0.076     2.018     2.222
    60   1 H        0.925     0.058     2.227     2.334
    61   6 C        3.802    -0.079    22.011     6.679
    62   1 H        0.924     0.052     2.296     2.370
    63   1 H        0.924     0.069     2.094     2.263
    64   6 C        3.736    -0.022    21.051     6.548
    65   1 H        0.924     0.083     1.947     2.182
    66   1 H        0.925     0.102     1.771     2.081
    67   7 N        2.693    -0.146    24.159     7.300
    68   1 H        0.861     0.234     0.947     1.525
    69   6 C        2.734     0.236    23.050     7.860
    70   7 N        2.649    -0.277    27.156     7.739
    71   1 H        0.860     0.240     0.924     1.506
    72   1 H        0.861     0.238     0.931     1.512
    73   7 N        2.646    -0.263    26.830     7.693
    74   1 H        0.860     0.253     0.871     1.462
    75   1 H        0.860     0.234     0.950     1.527
    76   6 C        2.759     0.195    23.842     7.996
    77   8 O        0.858    -0.377    21.222     6.176
    78   7 N        2.634    -0.348    28.960     7.992
    79   1 H        0.860     0.140     1.474     1.902
    80   6 C        3.786     0.043    19.861     6.348
    81   1 H        0.924     0.053     2.287     2.365
    82   6 C        3.811    -0.077    21.962     6.671
    83   1 H        0.924     0.058     2.224     2.332
    84   1 H        0.924     0.061     2.191     2.315
    85   6 C        3.801    -0.072    21.874     6.659
    86   1 H        0.924     0.048     2.349     2.397
    87   1 H        0.924     0.040     2.449     2.447
    88   6 C        3.802    -0.085    22.118     6.696
    89   1 H        0.925     0.068     2.107     2.270
    90   1 H        0.924     0.068     2.110     2.271
    91   6 C        3.731    -0.042    21.428     6.608
    92   1 H        0.924     0.111     1.692     2.034
    93   1 H        0.924     0.108     1.716     2.049
    94   7 N        3.487    -0.168    24.633     7.371
    95   1 H        0.860     0.314     0.674     1.286
    96   1 H        0.860     0.322     0.651     1.264
    97   1 H        0.860     0.310     0.684     1.295
    98   6 C        2.764     0.202    23.699     7.972
    99   8 O        0.857    -0.368    21.061     6.153
   100   7 N        2.644    -0.347    28.945     7.990
   101   1 H        0.860     0.162     1.321     1.800
   102   6 C        3.787     0.034    20.016     6.372
   103   1 H        0.925     0.061     2.191     2.315
   104   6 C        3.816    -0.072    21.864     6.655
   105   1 H        0.923     0.046     2.366     2.405
   106   1 H        0.925     0.085     1.929     2.172
   107   6 C        2.955     0.008    27.846     8.655
   108   6 C        2.919    -0.043    29.072     8.842
   109   1 H        0.925     0.026     2.647     2.544
   110   6 C        2.910    -0.038    28.942     8.821
   111   1 H        0.926     0.027     2.627     2.535
   112   6 C        2.908    -0.041    29.024     8.834
   113   1 H        0.925     0.026     2.645     2.543
   114   6 C        2.911    -0.038    28.939     8.821
   115   1 H        0.926     0.038     2.469     2.457
   116   6 C        2.919    -0.047    29.172     8.857
   117   1 H        0.925     0.053     2.283     2.363
   118   6 C        2.750     0.260    22.622     7.788
   119   8 O        0.861    -0.523    24.297     6.609
   120   7 N        2.688    -0.172    24.720     7.384
   121   1 H        0.860     0.199     1.113     1.652
   122   6 C        3.794     0.021    20.231     6.405
   123   1 H        0.924     0.069     2.098     2.265
   124   6 C        3.815    -0.073    21.883     6.658
   125   1 H        0.924     0.075     2.032     2.229
   126   1 H        0.925     0.048     2.350     2.398
   127   6 C        3.805    -0.069    21.811     6.649
   128   1 H        0.925     0.040     2.447     2.446
   129   1 H        0.924     0.069     2.093     2.262
   130   6 C        3.816    -0.093    22.256     6.714
   131   1 H        0.925     0.080     1.982     2.202
   132   1 H        0.925     0.057     2.234     2.337
   133   6 C        3.735    -0.043    21.428     6.606
   134   1 H        0.924     0.107     1.719     2.050
   135   1 H        0.925     0.128     1.549     1.946
   136   7 N        3.494    -0.167    24.606     7.367
   137   1 H        0.860     0.309     0.688     1.299
   138   1 H        0.860     0.324     0.647     1.260
   139   1 H        0.860     0.302     0.706     1.316
   140   6 C        2.749     0.277    22.314     7.735
   141   8 O        0.858    -0.502    23.824     6.544
   142   7 N        2.691    -0.155    24.347     7.328
   143   1 H        0.860     0.220     1.010     1.574
   144   6 C        3.789     0.042    19.886     6.351
   145   1 H        0.924     0.085     1.928     2.171
   146   6 C        3.814    -0.059    21.617     6.618
   147   1 H        0.925     0.075     2.030     2.228
   148   1 H        0.924     0.042     2.419     2.432
   149   6 C        2.965     0.013    27.718     8.636
   150   6 C        2.908    -0.032    28.810     8.801
   151   1 H        0.925     0.028     2.614     2.528
   152   6 C        2.922    -0.037    28.920     8.819
   153   1 H        0.926     0.040     2.455     2.450
   154   6 C        2.912    -0.042    29.045     8.837
   155   1 H        0.925     0.041     2.437     2.441
   156   6 C        2.909    -0.039    28.959     8.824
   157   1 H        0.926     0.045     2.389     2.417
   158   6 C        2.924    -0.037    28.932     8.821
   159   1 H        0.925     0.035     2.516     2.481
   160   6 C        2.759     0.210    23.557     7.948
   161   8 O        0.856    -0.368    21.053     6.152
   162   7 N        2.631    -0.383    29.917     8.123
   163   1 H        0.860     0.167     1.288     1.778
   164   6 C        3.788     0.029    20.098     6.385
   165   1 H        0.925     0.042     2.422     2.434
   166   6 C        3.805    -0.050    21.472     6.597
   167   1 H        0.924     0.035     2.520     2.483
   168   1 H        0.925     0.046     2.365     2.405
   169   6 C        3.799    -0.089    22.201     6.709
   170   1 H        0.924     0.033     2.544     2.494
   171   1 H        0.925     0.037     2.496     2.470
   172   6 C        2.686     0.360    20.894     7.481
   173   8 O        0.862    -0.670    27.894     7.081
   174   8 O        0.862    -0.655    27.504     7.032
   175   6 C        2.747     0.263    22.558     7.777
   176   8 O        0.859    -0.533    24.517     6.639
   177   7 N        2.688    -0.159    24.430     7.341
   178   1 H        0.860     0.216     1.028     1.588
   179   6 C        3.792     0.028    20.113     6.387
   180   1 H        0.925     0.095     1.829     2.115
   181   6 C        3.857    -0.013    20.765     6.481
   182   1 H        0.924     0.056     2.243     2.342
   183   6 C        3.756    -0.109    22.631     6.783
   184   1 H        0.924     0.049     2.326     2.385
   185   1 H        0.925     0.034     2.532     2.488
   186   1 H        0.924     0.054     2.265     2.354
   187   6 C        3.756    -0.119    22.839     6.814
   188   1 H        0.924     0.043     2.409     2.427
   189   1 H        0.925     0.050     2.324     2.384
   190   1 H        0.924     0.051     2.303     2.373
   191   6 C        2.763     0.205    23.637     7.962
   192   8 O        0.856    -0.371    21.118     6.161
   193   7 N        2.632    -0.372    29.611     8.082
   194   1 H        0.860     0.166     1.299     1.785
   195   6 C        3.788     0.038    19.941     6.360
   196   1 H        0.925     0.056     2.246     2.344
   197   6 C        3.853    -0.029    21.062     6.527
   198   1 H        0.924     0.053     2.280     2.361
   199   6 C        3.752    -0.121    22.886     6.822
   200   1 H        0.924     0.042     2.420     2.433
   201   1 H        0.925     0.063     2.168     2.302
   202   1 H        0.925     0.030     2.584     2.514
   203   6 C        3.801    -0.056    21.577     6.613
   204   1 H        0.924     0.020     2.737     2.587
   205   1 H        0.924     0.043     2.411     2.428
   206   6 C        3.750    -0.104    22.556     6.773
   207   1 H        0.924     0.034     2.536     2.490
   208   1 H        0.925     0.032     2.562     2.503
   209   1 H        0.925     0.044     2.401     2.423
   210   6 C        2.757     0.207    23.614     7.958
   211   8 O        0.858    -0.396    21.605     6.232
   212   1 H        0.860     0.192     1.146     1.677
   213   1 H        0.923     0.050     2.325     2.385
   214   1 H        0.860     0.186     1.179     1.701
   215   1 H        0.923     0.070     2.084     2.257
   216   1 H        0.860     0.159     1.339     1.813
   217   1 H        0.923     0.048     2.347     2.396
   218   1 H        0.860     0.165     1.300     1.786
   219   1 H        0.923     0.058     2.228     2.334
   220   1 H        0.860     0.167     1.289     1.779
   221   1 H        0.923     0.063     2.169     2.303
   222   1 H        0.860     0.179     1.219     1.730
   223   1 H        0.923     0.072     2.059     2.244
   224   1 H        0.860     0.189     1.165     1.691
   225   1 H        0.923     0.063     2.161     2.299

 Mol. C6AA /au·bohr⁶  :     469122.939627
 Mol. C8AA /au·bohr⁸  :   10544586.753703
 Mol. α(0) /au        :       1041.432063


Wiberg/Mayer (AO) data.
largest (>0.10) Wiberg bond orders for each atom

 ---------------------------------------------------------------------------
     #   Z sym  total        # sym  WBO       # sym  WBO       # sym  WBO
 ---------------------------------------------------------------------------
     1   7 N    3.032 --     3 C    1.039     2 H    0.956   212 H    0.949
     2   1 H    0.971 --     1 N    0.956
     3   6 C    3.988 --     1 N    1.039    20 C    1.005     4 H    0.938
                             5 C    0.916
     4   1 H    0.993 --     3 C    0.938
     5   6 C    3.987 --     8 C    1.013     6 H    0.966     7 H    0.963
                             3 C    0.916
     6   1 H    0.995 --     5 C    0.966
     7   1 H    0.997 --     5 C    0.963
     8   6 C    3.987 --    18 C    1.409     9 C    1.398     5 C    1.013
     9   6 C    3.989 --    11 C    1.458     8 C    1.398    10 H    0.968
                            16 C    0.106
    10   1 H    1.000 --     9 C    0.968
    11   6 C    3.987 --     9 C    1.458    13 C    1.359    12 H    0.966
                            18 C    0.105
    12   1 H    0.999 --    11 C    0.966
    13   6 C    3.937 --    16 C    1.371    11 C    1.359    14 O    1.074
    14   8 O    2.071 --    13 C    1.074    15 H    0.813
    15   1 H    0.876 --    14 O    0.813
    16   6 C    3.984 --    18 C    1.447    13 C    1.371    17 H    0.963
                             9 C    0.106
    17   1 H    0.996 --    16 C    0.963
    18   6 C    3.988 --    16 C    1.447     8 C    1.409    19 H    0.967
                            11 C    0.105
    19   1 H    0.997 --    18 C    0.967
    20   6 C    3.895 --    21 O    1.852     3 C    1.005   213 H    0.939
    21   8 O    2.023 --    20 C    1.852
    22   7 N    3.010 --    24 C    1.027    23 H    0.952   214 H    0.951
    23   1 H    0.976 --    22 N    0.952
    24   6 C    3.984 --    22 N    1.027    26 C    0.951    40 C    0.950
                            25 H    0.949
    25   1 H    0.994 --    24 C    0.949
    26   6 C    3.991 --    29 C    1.014    27 H    0.967    28 H    0.964
                            24 C    0.951
    27   1 H    0.995 --    26 C    0.967
    28   1 H    0.997 --    26 C    0.964
    29   6 C    3.988 --    38 C    1.419    30 C    1.401    26 C    1.014
                            34 C    0.107
    30   6 C    3.990 --    32 C    1.450    29 C    1.401    31 H    0.970
                            36 C    0.112
    31   1 H    0.998 --    30 C    0.970
    32   6 C    3.991 --    30 C    1.450    34 C    1.432    33 H    0.972
                            38 C    0.111
    33   1 H    0.998 --    32 C    0.972
    34   6 C    3.989 --    36 C    1.444    32 C    1.432    35 H    0.971
                            29 C    0.107
    35   1 H    0.998 --    34 C    0.971
    36   6 C    3.990 --    34 C    1.444    38 C    1.434    37 H    0.973
                            30 C    0.112
    37   1 H    0.999 --    36 C    0.973
    38   6 C    3.991 --    36 C    1.434    29 C    1.419    39 H    0.969
                            32 C    0.111
    39   1 H    0.999 --    38 C    0.969
    40   6 C    3.936 --    41 O    1.618    42 N    1.292    24 C    0.950
    41   8 O    1.918 --    40 C    1.618    42 N    0.185
    42   7 N    3.459 --    40 C    1.292    44 C    0.987    43 H    0.908
                            41 O    0.185
    43   1 H    0.957 --    42 N    0.908
    44   6 C    3.971 --    52 C    0.996    42 N    0.987    46 C    0.950
                            45 H    0.929
    45   1 H    0.990 --    44 C    0.929
    46   6 C    3.982 --    47 H    0.973    44 C    0.950    48 H    0.945
                            49 C    0.944
    47   1 H    0.999 --    46 C    0.973
    48   1 H    0.996 --    46 C    0.945
    49   6 C    3.940 --    51 O    1.500    50 O    1.451    46 C    0.944
    50   8 O    1.825 --    49 C    1.451    51 O    0.208
    51   8 O    1.861 --    49 C    1.500    50 O    0.208
    52   6 C    3.880 --    53 O    1.879    44 C    0.996   215 H    0.936
    53   8 O    2.047 --    52 C    1.879
    54   7 N    3.012 --    56 C    1.028   216 H    0.960    55 H    0.955
    55   1 H    0.971 --    54 N    0.955
    56   6 C    3.982 --    54 N    1.028    76 C    0.980    58 C    0.963
                            57 H    0.929
    57   1 H    0.994 --    56 C    0.929
    58   6 C    3.987 --    61 C    1.003    60 H    0.974    59 H    0.968
                            56 C    0.963
    59   1 H    0.994 --    58 C    0.968
    60   1 H    0.997 --    58 C    0.974
    61   6 C    3.987 --    58 C    1.003    64 C    1.002    62 H    0.970
                            63 H    0.966
    62   1 H    0.997 --    61 C    0.970
    63   1 H    0.995 --    61 C    0.966
    64   6 C    3.951 --    61 C    1.002    67 N    0.979    66 H    0.964
                            65 H    0.957
    65   1 H    0.992 --    64 C    0.957
    66   1 H    0.989 --    64 C    0.964
    67   7 N    3.446 --    69 C    1.297    64 C    0.979    68 H    0.917
                            73 N    0.101
    68   1 H    0.945 --    67 N    0.917
    69   6 C    3.974 --    70 N    1.325    73 N    1.322    67 N    1.297
    70   7 N    3.388 --    69 C    1.325    71 H    0.913    72 H    0.871
                            73 N    0.103
    71   1 H    0.942 --    70 N    0.913
    72   1 H    0.943 --    70 N    0.871
    73   7 N    3.395 --    69 C    1.322    74 H    0.915    75 H    0.901
                            70 N    0.103    67 N    0.101
    74   1 H    0.936 --    73 N    0.915
    75   1 H    0.945 --    73 N    0.901
    76   6 C    3.883 --    77 O    1.886    56 C    0.980   217 H    0.935
    77   8 O    2.041 --    76 C    1.886
    78   7 N    3.028 --    80 C    1.008    79 H    0.963   218 H    0.956
    79   1 H    0.980 --    78 N    0.963
    80   6 C    3.979 --    78 N    1.008    98 C    0.974    81 H    0.965
                            82 C    0.959
    81   1 H    0.997 --    80 C    0.965
    82   6 C    3.989 --    85 C    1.004    83 H    0.972    84 H    0.970
                            80 C    0.959
    83   1 H    0.997 --    82 C    0.972
    84   1 H    0.996 --    82 C    0.970
    85   6 C    3.994 --    88 C    1.005    82 C    1.004    86 H    0.976
                            87 H    0.974
    86   1 H    0.998 --    85 C    0.976
    87   1 H    0.998 --    85 C    0.974
    88   6 C    3.988 --    91 C    1.012    85 C    1.005    89 H    0.970
                            90 H    0.969
    89   1 H    0.995 --    88 C    0.970
    90   1 H    0.995 --    88 C    0.969
    91   6 C    3.926 --    88 C    1.012    94 N    0.967    93 H    0.966
                            92 H    0.965
    92   1 H    0.988 --    91 C    0.965
    93   1 H    0.988 --    91 C    0.966
    94   7 N    3.640 --    91 C    0.967    95 H    0.889    97 H    0.886
                            96 H    0.879
    95   1 H    0.902 --    94 N    0.889
    96   1 H    0.896 --    94 N    0.879
    97   1 H    0.904 --    94 N    0.886
    98   6 C    3.881 --    99 O    1.903    80 C    0.974   219 H    0.939
    99   8 O    2.044 --    98 C    1.903
   100   7 N    3.022 --   102 C    1.029   101 H    0.957   220 H    0.956
   101   1 H    0.974 --   100 N    0.957
   102   6 C    3.986 --   100 N    1.029   104 C    0.968   103 H    0.951
                           118 C    0.936
   103   1 H    0.996 --   102 C    0.951
   104   6 C    3.990 --   107 C    1.009   105 H    0.970   102 C    0.968
                           106 H    0.949
   105   1 H    0.998 --   104 C    0.970
   106   1 H    0.992 --   104 C    0.949
   107   6 C    3.987 --   116 C    1.416   108 C    1.405   104 C    1.009
                           112 C    0.109
   108   6 C    3.990 --   110 C    1.445   107 C    1.405   109 H    0.969
                           114 C    0.112
   109   1 H    0.999 --   108 C    0.969
   110   6 C    3.991 --   108 C    1.445   112 C    1.435   111 H    0.971
                           116 C    0.110
   111   1 H    0.999 --   110 C    0.971
   112   6 C    3.989 --   114 C    1.437   110 C    1.435   113 H    0.971
                           107 C    0.109
   113   1 H    0.999 --   112 C    0.971
   114   6 C    3.989 --   116 C    1.439   112 C    1.437   115 H    0.972
                           108 C    0.112
   115   1 H    0.998 --   114 C    0.972
   116   6 C    3.987 --   114 C    1.439   107 C    1.416   117 H    0.966
                           110 C    0.110
   117   1 H    0.997 --   116 C    0.966
   118   6 C    3.933 --   119 O    1.619   120 N    1.294   102 C    0.936
   119   8 O    1.923 --   118 C    1.619   120 N    0.194
   120   7 N    3.468 --   118 C    1.294   122 C    0.982   121 H    0.924
                           119 O    0.194
   121   1 H    0.960 --   120 N    0.924
   122   6 C    3.966 --   120 N    0.982   124 C    0.958   123 H    0.949
                           140 C    0.946
   123   1 H    0.995 --   122 C    0.949
   124   6 C    3.983 --   127 C    1.009   126 H    0.971   125 H    0.968
                           122 C    0.958
   125   1 H    0.994 --   124 C    0.968
   126   1 H    0.997 --   124 C    0.971
   127   6 C    3.992 --   124 C    1.009   130 C    1.003   128 H    0.977
                           129 H    0.971
   128   1 H    0.998 --   127 C    0.977
   129   1 H    0.995 --   127 C    0.971
   130   6 C    3.987 --   133 C    1.008   127 C    1.003   132 H    0.976
                           131 H    0.966
   131   1 H    0.994 --   130 C    0.966
   132   1 H    0.997 --   130 C    0.976
   133   6 C    3.922 --   130 C    1.008   136 N    0.969   134 H    0.967
                           135 H    0.960
   134   1 H    0.988 --   133 C    0.967
   135   1 H    0.984 --   133 C    0.960
   136   7 N    3.640 --   133 C    0.969   139 H    0.891   138 H    0.881
                           137 H    0.880
   137   1 H    0.905 --   136 N    0.880
   138   1 H    0.895 --   136 N    0.881
   139   1 H    0.909 --   136 N    0.891
   140   6 C    3.946 --   141 O    1.627   142 N    1.303   122 C    0.946
   141   8 O    1.938 --   140 C    1.627   142 N    0.196
   142   7 N    3.474 --   140 C    1.303   144 C    0.982   143 H    0.915
                           141 O    0.196
   143   1 H    0.952 --   142 N    0.915
   144   6 C    3.974 --   160 C    0.999   142 N    0.982   145 H    0.940
                           146 C    0.938
   145   1 H    0.992 --   144 C    0.940
   146   6 C    3.982 --   149 C    1.006   148 H    0.964   147 H    0.958
                           144 C    0.938
   147   1 H    0.994 --   146 C    0.958
   148   1 H    0.998 --   146 C    0.964
   149   6 C    3.987 --   158 C    1.414   150 C    1.408   146 C    1.006
                           154 C    0.110
   150   6 C    3.990 --   152 C    1.448   149 C    1.408   151 H    0.969
                           156 C    0.110
   151   1 H    0.999 --   150 C    0.969
   152   6 C    3.990 --   150 C    1.448   154 C    1.430   153 H    0.971
                           158 C    0.112
   153   1 H    0.998 --   152 C    0.971
   154   6 C    3.987 --   156 C    1.442   152 C    1.430   155 H    0.971
                           149 C    0.110
   155   1 H    0.998 --   154 C    0.971
   156   6 C    3.987 --   154 C    1.442   158 C    1.436   157 H    0.968
                           150 C    0.110
   157   1 H    0.998 --   156 C    0.968
   158   6 C    3.989 --   156 C    1.436   149 C    1.414   159 H    0.967
                           152 C    0.112
   159   1 H    0.999 --   158 C    0.967
   160   6 C    3.884 --   161 O    1.877   144 C    0.999   221 H    0.941
   161   8 O    2.041 --   160 C    1.877
   162   7 N    3.024 --   164 C    1.023   163 H    0.953   222 H    0.951
   163   1 H    0.972 --   162 N    0.953
   164   6 C    3.984 --   162 N    1.023   166 C    0.975   175 C    0.946
                           165 H    0.942
   165   1 H    0.998 --   164 C    0.942
   166   6 C    3.992 --   169 C    1.009   167 H    0.977   164 C    0.975
                           168 H    0.973
   167   1 H    0.998 --   166 C    0.977
   168   1 H    0.998 --   166 C    0.973
   169   6 C    3.993 --   166 C    1.009   170 H    0.966   171 H    0.962
                           172 C    0.939
   170   1 H    0.999 --   169 C    0.966
   171   1 H    0.999 --   169 C    0.962
   172   6 C    3.933 --   173 O    1.487   174 O    1.482   169 C    0.939
   173   8 O    1.762 --   172 C    1.487   174 O    0.209
   174   8 O    1.766 --   172 C    1.482   173 O    0.209
   175   6 C    3.946 --   176 O    1.607   177 N    1.307   164 C    0.946
   176   8 O    1.911 --   175 C    1.607   177 N    0.194
   177   7 N    3.478 --   175 C    1.307   179 C    0.988   178 H    0.900
                           176 O    0.194
   178   1 H    0.953 --   177 N    0.900
   179   6 C    3.969 --   191 C    0.993   177 N    0.988   180 H    0.938
                           181 C    0.927
   180   1 H    0.991 --   179 C    0.938
   181   6 C    3.986 --   187 C    1.009   183 C    1.004   182 H    0.966
                           179 C    0.927
   182   1 H    0.996 --   181 C    0.966
   183   6 C    3.992 --   181 C    1.004   184 H    0.983   185 H    0.981
                           186 H    0.978
   184   1 H    0.998 --   183 C    0.983
   185   1 H    0.999 --   183 C    0.981
   186   1 H    0.996 --   183 C    0.978
   187   6 C    3.993 --   181 C    1.009   188 H    0.985   190 H    0.982
                           189 H    0.982
   188   1 H    0.998 --   187 C    0.985
   189   1 H    0.997 --   187 C    0.982
   190   1 H    0.997 --   187 C    0.982
   191   6 C    3.888 --   192 O    1.885   179 C    0.993   223 H    0.934
   192   8 O    2.052 --   191 C    1.885
   193   7 N    3.009 --   195 C    1.014   194 H    0.958   224 H    0.948
   194   1 H    0.973 --   193 N    0.958
   195   6 C    3.982 --   193 N    1.014   210 C    0.987   196 H    0.953
                           197 C    0.944
   196   1 H    0.996 --   195 C    0.953
   197   6 C    3.989 --   199 C    1.006   203 C    0.995   198 H    0.961
                           195 C    0.944
   198   1 H    0.997 --   197 C    0.961
   199   6 C    3.992 --   197 C    1.006   202 H    0.988   200 H    0.986
                           201 H    0.979
   200   1 H    0.997 --   199 C    0.986
   201   1 H    0.996 --   199 C    0.979
   202   1 H    0.999 --   199 C    0.988
   203   6 C    3.997 --   206 C    1.018   197 C    0.995   204 H    0.978
                           205 H    0.977
   204   1 H    1.000 --   203 C    0.978
   205   1 H    0.998 --   203 C    0.977
   206   6 C    3.995 --   203 C    1.018   208 H    0.989   209 H    0.984
                           207 H    0.984
   207   1 H    0.999 --   206 C    0.984
   208   1 H    0.999 --   206 C    0.989
   209   1 H    0.998 --   206 C    0.984
   210   6 C    3.870 --   211 O    1.882   195 C    0.987   225 H    0.939
   211   8 O    2.020 --   210 C    1.882
   212   1 H    0.963 --     1 N    0.949
   213   1 H    0.997 --    20 C    0.939
   214   1 H    0.965 --    22 N    0.951
   215   1 H    0.994 --    52 C    0.936
   216   1 H    0.974 --    54 N    0.960
   217   1 H    0.997 --    76 C    0.935
   218   1 H    0.972 --    78 N    0.956
   219   1 H    0.996 --    98 C    0.939
   220   1 H    0.971 --   100 N    0.956
   221   1 H    0.995 --   160 C    0.941
   222   1 H    0.968 --   162 N    0.951
   223   1 H    0.994 --   191 C    0.934
Note: The following floating-point exceptions are signalling: IEEE_UNDERFLOW_FLAG IEEE_DENORMAL
normal termination of xtb
   224   1 H    0.964 --   193 N    0.948
   225   1 H    0.996 --   210 C    0.939
 ---------------------------------------------------------------------------

Topologies differ in total number of bonds
Writing topology from bond orders to xtbtopo.mol

molecular dipole:
                 x           y           z       tot (Debye)
 q only:       30.864      40.898      92.180
   full:       31.555      41.710      91.068     266.929
molecular quadrupole (traceless):
                xx          xy          yy          xz          yz          zz
 q only:    -4522.405    1173.929   -2930.256    4583.292    5706.534    7452.661
  q+dip:    -4403.537    1320.294   -2803.691    4564.802    5725.222    7207.228
   full:    -4396.799    1322.558   -2806.847    4564.410    5725.501    7203.646


           -------------------------------------------------
          | TOTAL ENERGY             -330.369949969358 Eh   |
          | GRADIENT NORM               0.298510758415 Eh/α |
          | HOMO-LUMO GAP               1.319944966826 eV   |
           -------------------------------------------------

------------------------------------------------------------------------
 * finished run on 2026/01/05 at 09:07:56.364     
------------------------------------------------------------------------
 total:
 * wall-time:     0 d,  0 h,  0 min,  1.575 sec
 *  cpu-time:     0 d,  0 h,  0 min, 22.689 sec
 * ratio c/w:    14.403 speedup
 SCF:
 * wall-time:     0 d,  0 h,  0 min,  1.491 sec
 *  cpu-time:     0 d,  0 h,  0 min, 21.446 sec
 * ratio c/w:    14.380 speedup

