      -----------------------------------------------------------      
     |                   =====================                   |     
     |                           x T B                           |     
     |                   =====================                   |     
     |                         S. Grimme                         |     
     |          Mulliken Center for Theoretical Chemistry        |     
     |                    University of Bonn                     |     
      -----------------------------------------------------------      

   * xtb version 6.7.1 (edcfbbe) compiled by 'conda@c0858423619e' on 2025-09-04

   xtb is free software: you can redistribute it and/or modify it under
   the terms of the GNU Lesser General Public License as published by
   the Free Software Foundation, either version 3 of the License, or
   (at your option) any later version.
   
   xtb is distributed in the hope that it will be useful,
   but WITHOUT ANY WARRANTY; without even the implied warranty of
   MERCHANTABILITY or FITNESS FOR A PARTICULAR PURPOSE.  See the
   GNU Lesser General Public License for more details.
   
   Cite this work as:
   * C. Bannwarth, E. Caldeweyher, S. Ehlert, A. Hansen, P. Pracht,
     J. Seibert, S. Spicher, S. Grimme, WIREs Comput. Mol. Sci., 2020, 11,
     e01493. DOI: 10.1002/wcms.1493
   
   for GFN2-xTB:
   * C. Bannwarth, S. Ehlert and S. Grimme., J. Chem. Theory Comput., 2019,
     15, 1652-1671. DOI: 10.1021/acs.jctc.8b01176
   for GFN1-xTB:
   * S. Grimme, C. Bannwarth, P. Shushkov, J. Chem. Theory Comput., 2017,
     13, 1989-2009. DOI: 10.1021/acs.jctc.7b00118
   for GFN0-xTB:
   * P. Pracht, E. Caldeweyher, S. Ehlert, S. Grimme, ChemRxiv, 2019, preprint.
     DOI: 10.26434/chemrxiv.8326202.v1
   for GFN-FF:
   * S. Spicher and S. Grimme, Angew. Chem. Int. Ed., 2020, 59, 15665-15673.
     DOI: 10.1002/anie.202004239
   
   for ALPB and GBSA implicit solvation:
   * S. Ehlert, M. Stahn, S. Spicher, S. Grimme, J. Chem. Theory Comput.,
     2021, 17, 4250-4261. DOI: 10.1021/acs.jctc.1c00471
   
   for ddCOSMO and CPCM-X implicit solvation:
   * M. Stahn, S. Ehlert, S. Grimme, J. Phys. Chem. A,
     2023, XX, XXXX-XXXX. DOI: 10.1021/acs.jpca.3c04382
   
   for DFT-D4:
   * E. Caldeweyher, C. Bannwarth and S. Grimme, J. Chem. Phys., 2017,
     147, 034112. DOI: 10.1063/1.4993215
   * E. Caldeweyher, S. Ehlert, A. Hansen, H. Neugebauer, S. Spicher,
     C. Bannwarth and S. Grimme, J. Chem. Phys., 2019, 150, 154122.
     DOI: 10.1063/1.5090222
   * E. Caldeweyher, J.-M. Mewes, S. Ehlert and S. Grimme, Phys. Chem. Chem. Phys.
     2020, 22, 8499-8512. DOI: 10.1039/D0CP00502A
   
   for sTDA-xTB:
   * S. Grimme and C. Bannwarth, J. Chem. Phys., 2016, 145, 054103.
     DOI: 10.1063/1.4959605
   
   in the mass-spec context:
   * V. Asgeirsson, C. Bauer and S. Grimme, Chem. Sci., 2017, 8, 4879.
     DOI: 10.1039/c7sc00601b
   * J. Koopman and S. Grimme, ACS Omega 2019, 4, 12, 15120-15133.
     DOI: 10.1021/acsomega.9b02011
   
   for metadynamics refer to:
   * S. Grimme, J. Chem. Theory Comput., 2019, 155, 2847-2862
     DOI: 10.1021/acs.jctc.9b00143
   
   for SPH calculations refer to:
   * S. Spicher and S. Grimme, J. Chem. Theory Comput., 2021, 17, 1701-1714
     DOI: 10.1021/acs.jctc.0c01306
   
   for ONIOM refer to:
   * C. Plett, A. Katbashev, S. Ehlert, S. Grimme, M. Bursch,
     Phys. Chem. Chem. Phys., 2023, 25, 17860-17868. DOI: 10.1039/D3CP02178E
   
   for DIPRO refer to:
   * J. Kohn, N. Gildemeister, S. Grimme, D. Fazzi, A. Hansen,
     J. Chem. Phys., 2023, just accepted.
   
   for PTB refer to:
   * S. Grimme, M. Mueller, A. Hansen, J. Chem. Phys., 2023, 158, 124111.
     DOI: 10.1063/5.0137838
   
   with help from (in alphabetical order)
   P. Atkinson, C. Bannwarth, F. Bohle, G. Brandenburg, E. Caldeweyher
   M. Checinski, S. Dohm, S. Ehlert, S. Ehrlich, I. Gerasimov, C. Hölzer
   A. Katbashev, J. Kohn, J. Koopman, C. Lavigne, S. Lehtola, F. März, M. Müller,
   F. Musil, H. Neugebauer, J. Pisarek, C. Plett, P. Pracht, F. Pultar,
   J. Seibert, P. Shushkov, S. Spicher, M. Stahn, M. Steiner, T. Strunk,
   J. Stückrath, T. Rose, and J. Unsleber
   
 * started run on 2026/01/05 at 09:07:41.957     
   ID    Z sym.   atoms
    1    6 C      1, 3-11, 14-16, 18, 20, 21, 24-29, 32, 62, 64, 67, 68, 70,
                  72, 74, 76, 78, 82, 84, 87, 90, 94, 96, 99, 102, 107, 114,
                  118, 120, 123, 126, 129, 136, 140, 142, 145, 146, 148, 150,
                  152, 154, 156, 160, 162, 165, 166, 168, 170, 173, 175, 177,
                  181, 183, 186, 188, 192, 194, 198, 200, 202, 206, 209, 213,
                  217, 219, 221, 225, 228, 232
    2    7 N      2, 22, 60, 80, 92, 105, 108, 111, 116, 132, 138, 158, 179,
                  187, 190, 196, 215
    3    8 O      12, 13, 17, 30, 31, 79, 88, 89, 91, 115, 137, 157, 171,
                  178, 195, 214, 233
    4   16 S      19, 23
    5    1 H      33-59, 61, 63, 65, 66, 69, 71, 73, 75, 77, 81, 83, 85, 86,
                  93, 95, 97, 98, 100, 101, 103, 104, 106, 109, 110, 112,
                  113, 117, 119, 121, 122, 124, 125, 127, 128, 130, 131,
                  133-135, 139, 141, 143, 144, 147, 149, 151, 153, 155, 159,
                  161, 163, 164, 167, 169, 172, 174, 176, 180, 182, 184, 185,
                  189, 191, 193, 197, 199, 201, 203-205, 207, 208, 210-212,
                  216, 218, 220, 222-224, 226, 227, 229-231, 234-247

           -------------------------------------------------
          |                Calculation Setup                |
           -------------------------------------------------

          program call               : xtb /home/antonio_mesquita/Documentos/gmx_ISA_project/testes_arquivos_primeiros/gmx_ISA_testes/testes_qm_xtb/QM_analysis/QM_FRAMES_CAPPED/frame_4800ps/complex_capped_4800ps.xyz --gfn 2 --alpb water --chrg 2 --etemp 1500 --cycles 1000
          coordinate file            : /home/antonio_mesquita/Documentos/gmx_ISA_project/testes_arquivos_primeiros/gmx_ISA_testes/testes_qm_xtb/QM_analysis/QM_FRAMES_CAPPED/frame_4800ps/complex_capped_4800ps.xyz
          omp threads                :                    16


molecular fragmentation (1/2 indicates fragments):
111111111111111111111111111111111111111111111111111111111112222222222222
222222222222222222222222222222222222222222222222222222222222222222222222
222222222222222222222222222222222222222222222222222222222222222222222222
2222222222222222222222222222222
# atoms in fragment 1/2:    59   188
 fragment masses (1/2) :      475.60     1235.54
CMA distance (Bohr)    : 112.635
constraining FC (au)   :  0.0500

           -------------------------------------------------
          |                 G F N 2 - x T B                 |
           -------------------------------------------------

        Reference                      10.1021/acs.jctc.8b01176
      * Hamiltonian:
        H0-scaling (s, p, d)           1.850000    2.230000    2.230000
        zeta-weighting                 0.500000
      * Dispersion:
        s8                             2.700000
        a1                             0.520000
        a2                             5.000000
        s9                             5.000000
      * Repulsion:
        kExp                           1.500000    1.000000
        rExp                           1.000000
      * Coulomb:
        alpha                          2.000000
        third order                    shell-resolved
        anisotropic                    true
        a3                             3.000000
        a5                             4.000000
        cn-shift                       1.200000
        cn-exp                         4.000000
        max-rad                        5.000000

      * Solvation model:               ALPB
        Solvent                        water
        Parameter file                 internal GFN2-xTB/ALPB
        Dielectric constant                8.0200E+01
        Reference state                gsolv [1 M gas/solution]
        Free energy shift                  1.0808E-03 Eh       6.7819E-01 kcal/mol
        Temperature                        2.9815E+02 K
        Density                            1.0000E+00 kg/L
        Solvent mass                       1.8000E+01 g/mol
        Interaction kernel             P16
        Born radius scaling (c1)           1.4744E+00
        Born radii integrator          GBOBC
        Born offset                        0.0000E+00 a0       0.0000E+00 AA
        H-bond correction              true
        Ion screening                  false
        Surface tension                    1.0000E-05 Eh       1.5569E+01 dyn/cm
        Grid points                               230 per atom

          ...................................................
          :                      SETUP                      :
          :.................................................:
          :  # basis functions                 619          :
          :  # atomic orbitals                 617          :
          :  # shells                          369          :
          :  # electrons                       660          :
          :  max. iterations                   250          :
          :  Hamiltonian                  GFN2-xTB          :
          :  restarted?                      false          :
          :  GBSA solvation                   true          :
          :  PC potential                    false          :
          :  electronic temp.         1500.0000000     K    :
          :  accuracy                    1.0000000          :
          :  -> integral cutoff          0.2500000E+02      :
          :  -> integral neglect         0.1000000E-07      :
          :  -> SCF convergence          0.1000000E-05 Eh   :
          :  -> wf. convergence          0.1000000E-03 e    :
          :  Broyden damping             0.4000000          :
          :  net charge                          2          :
          :  unpaired electrons                  0          :
          ...................................................

 iter      E             dE          RMSdq      gap      omega  full diag
   1   -372.7622358 -0.372762E+03  0.448E+00    0.03       0.0  T
   2   -373.3064859 -0.544250E+00  0.259E+00    1.36       1.0  T
   3   -373.2155213  0.909646E-01  0.173E+00    0.03       1.0  T
   4   -373.4935247 -0.278003E+00  0.805E-01    0.40       1.0  T
   5   -373.5170103 -0.234856E-01  0.573E-01    0.11       1.0  T
   6   -373.5885435 -0.715332E-01  0.274E-01    0.28       1.0  T
   7   -373.5981033 -0.955975E-02  0.174E-01    0.28       1.0  T
   8   -373.6003128 -0.220958E-02  0.128E-01    0.30       1.0  T
   9   -373.6026678 -0.235494E-02  0.777E-02    0.24       1.0  T
  10   -373.6031610 -0.493215E-03  0.617E-02    0.32       1.0  T
  11   -373.6040741 -0.913057E-03  0.217E-02    0.31       1.0  T
  12   -373.6041083 -0.342708E-04  0.163E-02    0.30       1.0  T
  13   -373.6041588 -0.504772E-04  0.699E-03    0.30       1.0  T
  14   -373.6041594 -0.617555E-06  0.600E-03    0.30       1.1  T
  15   -373.6041650 -0.561238E-05  0.347E-03    0.30       1.8  T
  16   -373.6041672 -0.221424E-05  0.163E-03    0.30       3.9  T
  17   -373.6041676 -0.347195E-06  0.109E-03    0.30       5.8  T
  18   -373.6041679 -0.266510E-06  0.358E-04    0.30      17.8  T
  19   -373.6041679 -0.136407E-07  0.223E-04    0.30      28.6  T

   *** convergence criteria satisfied after 19 iterations ***

         #    Occupation            Energy/Eh            Energy/eV
      -------------------------------------------------------------
         1        2.0000           -0.7962953             -21.6683
       ...           ...                  ...                  ...
       324        1.9070           -0.3640745              -9.9070
       325        1.8666           -0.3622614              -9.8576
       326        1.8620           -0.3620871              -9.8529
       327        1.8597           -0.3620027              -9.8506
       328        1.8570           -0.3619053              -9.8479
       329        1.8337           -0.3611301              -9.8269
       330        1.8277           -0.3609450              -9.8218 (HOMO)
       331        1.0238           -0.3499530              -9.5227 (LUMO)
       332        0.0001           -0.3000665              -8.1652
       333        0.0000           -0.2961791              -8.0594
       334        0.0000           -0.2955077              -8.0412
       335        0.0000           -0.2904244              -7.9028
       ...           ...                  ...                  ...
       617                          1.0210161              27.7833
      -------------------------------------------------------------
                  HL-Gap            0.0109920 Eh            0.2991 eV
             Fermi-level           -0.3497269 Eh           -9.5166 eV

 SCC (total)                   0 d,  0 h,  0 min,  2.683 sec
 SCC setup                      ...        0 min,  0.014 sec (  0.538%)
 Dispersion                     ...        0 min,  0.031 sec (  1.172%)
 classical contributions        ...        0 min,  0.002 sec (  0.076%)
 integral evaluation            ...        0 min,  0.056 sec (  2.094%)
 iterations                     ...        0 min,  2.413 sec ( 89.958%)
 molecular gradient             ...        0 min,  0.159 sec (  5.912%)
 printout                       ...        0 min,  0.007 sec (  0.249%)

         :::::::::::::::::::::::::::::::::::::::::::::::::::::
         ::                     SUMMARY                     ::
         :::::::::::::::::::::::::::::::::::::::::::::::::::::
         :: total energy            -368.939390532922 Eh    ::
         :: total w/o Gsasa/hb      -368.888748325812 Eh    ::
         :: gradient norm              0.303752558644 Eh/a0 ::
         :: HOMO-LUMO gap              0.299107819326 eV    ::
         ::.................................................::
         :: SCC energy              -373.595968621613 Eh    ::
         :: -> isotropic ES            1.008144720160 Eh    ::
         :: -> anisotropic ES         -0.034061705652 Eh    ::
         :: -> anisotropic XC          0.173078554417 Eh    ::
         :: -> dispersion             -0.252792929829 Eh    ::
         :: -> Gsolv                  -0.407492417871 Eh    ::
         ::    -> Gelec               -0.356850210761 Eh    ::
         ::    -> Gsasa                0.006427497402 Eh    ::
         ::    -> Ghb                 -0.058150464210 Eh    ::
         ::    -> Gshift               0.001080759698 Eh    ::
         :: repulsion energy           4.656578088691 Eh    ::
         :: add. restraining           0.000000000000 Eh    ::
         :: total charge               2.000000000000 e     ::
         :::::::::::::::::::::::::::::::::::::::::::::::::::::

           -------------------------------------------------
          |                Property Printout                |
           -------------------------------------------------

    * Orbital Energies and Occupations

         #    Occupation            Energy/Eh            Energy/eV
      -------------------------------------------------------------
         1        2.0000           -0.7962953             -21.6683
       ...           ...                  ...                  ...
       318        1.9995           -0.3894044             -10.5962
       319        1.9995           -0.3889305             -10.5833
       320        1.9980           -0.3825742             -10.4104
       321        1.9961           -0.3793413             -10.3224
       322        1.9855           -0.3731057             -10.1527
       323        1.9845           -0.3727820             -10.1439
       324        1.9070           -0.3640745              -9.9070
       325        1.8666           -0.3622614              -9.8576
       326        1.8620           -0.3620871              -9.8529
       327        1.8597           -0.3620027              -9.8506
       328        1.8570           -0.3619053              -9.8479
       329        1.8337           -0.3611301              -9.8269
       330        1.8277           -0.3609450              -9.8218 (HOMO)
       331        1.0238           -0.3499530              -9.5227 (LUMO)
       332        0.0001           -0.3000665              -8.1652
       333        0.0000           -0.2961791              -8.0594
       334        0.0000           -0.2955077              -8.0412
       335        0.0000           -0.2904244              -7.9028
       336        0.0000           -0.2847987              -7.7498
       337        0.0000           -0.2829934              -7.7006
       338        0.0000           -0.2822995              -7.6818
       339                         -0.2648573              -7.2071
       340                         -0.2600938              -7.0775
       341                         -0.2471953              -6.7265
       ...                                ...                  ...
       617                          1.0210161              27.7833
      -------------------------------------------------------------
                  HL-Gap            0.0109920 Eh            0.2991 eV
             Fermi-level           -0.3497269 Eh           -9.5166 eV

     #   Z          covCN         q      C6AA      α(0)
     1   6 C        2.744     0.255    22.708     7.802
     2   7 N        2.686    -0.120    23.614     7.217
     3   6 C        2.869     0.029    27.347     8.572
     4   6 C        3.683     0.078    19.478     6.319
     5   6 C        3.810    -0.070    21.828     6.650
     6   6 C        2.967     0.021    27.535     8.607
     7   6 C        2.916    -0.039    28.969     8.826
     8   6 C        2.915    -0.035    28.863     8.810
     9   6 C        2.908    -0.041    29.024     8.834
    10   6 C        2.916    -0.037    28.909     8.817
    11   6 C        2.908    -0.037    28.915     8.817
    12   8 O        1.708    -0.282    18.683     5.836
    13   8 O        0.857    -0.503    23.862     6.549
    14   6 C        2.705     0.330    21.392     7.570
    15   6 C        3.751    -0.125    22.954     6.832
    16   6 C        3.843     0.010    20.385     6.423
    17   8 O        0.859    -0.475    23.231     6.462
    18   6 C        3.787    -0.031    21.149     6.550
    19  16 S        1.961    -0.174   148.439    20.506
    20   6 C        3.789    -0.037    21.255     6.566
    21   6 C        3.863     0.026    20.102     6.376
    22   7 N        2.728    -0.290    27.465     7.784
    23  16 S        3.811     1.150   102.461    17.037
    24   6 C        2.961    -0.092    30.306     9.030
    25   6 C        2.925    -0.029    28.714     8.788
    26   6 C        2.950    -0.035    28.865     8.812
    27   6 C        2.946     0.038    27.140     8.544
    28   6 C        2.943    -0.038    28.942     8.823
    29   6 C        2.956    -0.037    28.907     8.819
    30   8 O        0.860    -0.652    27.434     7.022
    31   8 O        0.860    -0.645    27.247     6.998
    32   6 C        3.750    -0.137    23.192     6.868
    33   1 H        0.860     0.244     0.906     1.491
    34   1 H        0.924     0.063     2.169     2.303
    35   1 H        0.923     0.057     2.237     2.339
    36   1 H        0.924     0.086     1.918     2.166
    37   1 H        0.924     0.078     1.999     2.211
    38   1 H        0.924     0.031     2.574     2.509
    39   1 H        0.925     0.040     2.454     2.450
    40   1 H        0.925     0.047     2.360     2.402
    41   1 H        0.925     0.049     2.333     2.389
    42   1 H        0.925     0.054     2.265     2.353
    43   1 H        0.923     0.063     2.161     2.299
    44   1 H        0.924     0.071     2.077     2.254
    45   1 H        0.924     0.074     2.040     2.234
    46   1 H        0.924     0.039     2.457     2.451
    47   1 H        0.924     0.064     2.151     2.293
    48   1 H        0.924     0.090     1.876     2.142
    49   1 H        0.924     0.096     1.824     2.112
    50   1 H        0.923     0.088     1.897     2.154
    51   1 H        0.923     0.080     1.975     2.198
    52   1 H        0.924     0.079     1.988     2.205
    53   1 H        0.925     0.075     2.030     2.228
    54   1 H        0.925     0.084     1.937     2.176
    55   1 H        0.925     0.069     2.097     2.265
    56   1 H        0.925     0.054     2.274     2.358
    57   1 H        0.924     0.068     2.109     2.271
    58   1 H        0.925     0.087     1.912     2.162
    59   1 H        0.923     0.085     1.932     2.174
    60   7 N        2.636    -0.343    28.834     7.975
    61   1 H        0.860     0.174     1.247     1.750
    62   6 C        3.785     0.033    20.043     6.377
    63   1 H        0.924     0.074     2.042     2.235
    64   6 C        3.816    -0.070    21.834     6.650
    65   1 H        0.924     0.061     2.184     2.311
    66   1 H        0.925     0.049     2.339     2.391
    67   6 C        2.956     0.011    27.772     8.644
    68   6 C        2.918    -0.042    29.044     8.837
    69   1 H        0.925     0.045     2.381     2.413
    70   6 C        2.911    -0.036    28.895     8.814
    71   1 H        0.925     0.042     2.426     2.436
    72   6 C        2.909    -0.036    28.891     8.814
    73   1 H        0.926     0.040     2.454     2.449
    74   6 C        2.912    -0.036    28.888     8.813
    75   1 H        0.926     0.035     2.520     2.482
    76   6 C        2.918    -0.039    28.980     8.828
    77   1 H        0.926     0.022     2.698     2.569
    78   6 C        2.750     0.275    22.348     7.741
    79   8 O        0.860    -0.514    24.097     6.582
    80   7 N        2.686    -0.158    24.411     7.338
    81   1 H        0.860     0.211     1.049     1.605
    82   6 C        3.792     0.043    19.856     6.346
    83   1 H        0.924     0.090     1.876     2.142
    84   6 C        3.805    -0.084    22.102     6.693
    85   1 H        0.925     0.041     2.434     2.440
    86   1 H        0.923     0.058     2.225     2.333
    87   6 C        2.689     0.358    20.925     7.486
    88   8 O        0.857    -0.612    26.420     6.891
    89   8 O        0.857    -0.641    27.141     6.985
    90   6 C        2.761     0.211    23.539     7.945
    91   8 O        0.856    -0.364    20.977     6.141
    92   7 N        2.630    -0.344    28.867     7.980
    93   1 H        0.860     0.183     1.198     1.715
    94   6 C        3.786     0.032    20.045     6.377
    95   1 H        0.924     0.088     1.898     2.154
    96   6 C        3.810    -0.071    21.850     6.654
    97   1 H        0.925     0.073     2.051     2.239
    98   1 H        0.924     0.056     2.243     2.342
    99   6 C        3.810    -0.085    22.117     6.694
   100   1 H        0.925     0.073     2.052     2.240
   101   1 H        0.925     0.069     2.091     2.261
   102   6 C        3.740    -0.027    21.127     6.558
   103   1 H        0.925     0.081     1.968     2.194
   104   1 H        0.925     0.103     1.754     2.071
   105   7 N        2.696    -0.143    24.087     7.289
   106   1 H        0.860     0.238     0.933     1.513
   107   6 C        2.736     0.239    23.006     7.853
   108   7 N        2.650    -0.265    26.877     7.700
   109   1 H        0.860     0.244     0.908     1.493
   110   1 H        0.860     0.241     0.921     1.503
   111   7 N        2.654    -0.269    26.965     7.712
   112   1 H        0.860     0.263     0.833     1.430
   113   1 H        0.860     0.227     0.978     1.549
   114   6 C        2.761     0.199    23.764     7.983
   115   8 O        0.856    -0.370    21.088     6.157
   116   7 N        2.638    -0.317    28.148     7.880
   117   1 H        0.860     0.159     1.344     1.816
   118   6 C        3.786     0.038    19.949     6.362
   119   1 H        0.925     0.070     2.084     2.258
   120   6 C        3.808    -0.081    22.030     6.681
   121   1 H        0.925     0.057     2.239     2.340
   122   1 H        0.925     0.070     2.090     2.261
   123   6 C        3.805    -0.082    22.065     6.687
   124   1 H        0.924     0.061     2.190     2.314
   125   1 H        0.925     0.044     2.392     2.418
   126   6 C        3.802    -0.089    22.189     6.706
   127   1 H        0.924     0.070     2.084     2.257
   128   1 H        0.925     0.064     2.149     2.292
   129   6 C        3.733    -0.043    21.442     6.609
   130   1 H        0.924     0.112     1.675     2.024
   131   1 H        0.925     0.111     1.684     2.029
   132   7 N        3.488    -0.162    24.497     7.351
   133   1 H        0.860     0.309     0.686     1.298
   134   1 H        0.860     0.309     0.686     1.298
   135   1 H        0.860     0.314     0.674     1.286
   136   6 C        2.766     0.208    23.593     7.955
   137   8 O        0.856    -0.361    20.925     6.133
   138   7 N        2.635    -0.308    27.921     7.848
   139   1 H        0.860     0.188     1.171     1.695
   140   6 C        3.784     0.040    19.926     6.358
   141   1 H        0.925     0.100     1.781     2.087
   142   6 C        3.820    -0.080    22.018     6.678
   143   1 H        0.923     0.052     2.291     2.367
   144   1 H        0.924     0.092     1.863     2.134
   145   6 C        2.972     0.014    27.691     8.632
   146   6 C        2.902    -0.040    29.000     8.830
   147   1 H        0.925     0.040     2.447     2.446
   148   6 C        2.917    -0.042    29.033     8.836
   149   1 H        0.926     0.033     2.545     2.495
   150   6 C        2.920    -0.041    29.022     8.834
   151   1 H        0.926     0.024     2.666     2.554
   152   6 C        2.902    -0.043    29.056     8.838
   153   1 H        0.926     0.047     2.352     2.398
   154   6 C        2.928    -0.051    29.254     8.870
   155   1 H        0.926     0.062     2.173     2.305
   156   6 C        2.761     0.207    23.605     7.956
   157   8 O        0.856    -0.389    21.467     6.212
   158   7 N        2.636    -0.334    28.592     7.942
   159   1 H        0.860     0.189     1.164     1.690
   160   6 C        3.787     0.042    19.883     6.351
   161   1 H        0.924     0.100     1.781     2.087
   162   6 C        3.811    -0.065    21.743     6.637
   163   1 H        0.924     0.063     2.161     2.299
   164   1 H        0.925     0.065     2.140     2.288
   165   6 C        2.956     0.007    27.857     8.657
   166   6 C        2.925    -0.042    29.048     8.839
   167   1 H        0.925     0.043     2.411     2.428
   168   6 C        2.908    -0.075    29.866     8.961
   169   1 H        0.924     0.041     2.435     2.440
   170   6 C        2.834     0.146    24.813     8.163
   171   8 O        1.659    -0.468    22.210     6.362
   172   1 H        0.805     0.381     0.520     1.133
   173   6 C        2.912    -0.064    29.590     8.920
   174   1 H        0.925     0.046     2.369     2.407
   175   6 C        2.922    -0.040    28.990     8.830
   176   1 H        0.926     0.050     2.324     2.384
   177   6 C        2.757     0.201    23.715     7.975
   178   8 O        0.856    -0.394    21.554     6.224
   179   7 N        2.639    -0.331    28.509     7.930
   180   1 H        0.860     0.205     1.080     1.628
   181   6 C        3.784     0.038    19.946     6.362
   182   1 H        0.924     0.066     2.126     2.280
   183   6 C        3.804    -0.075    21.925     6.666
   184   1 H        0.924     0.058     2.223     2.332
   185   1 H        0.925     0.080     1.984     2.203
   186   6 C        3.176     0.049    26.520     8.410
   187   7 N        1.888    -0.314    28.995     7.983
   188   6 C        3.064     0.080    26.162     8.388
   189   1 H        0.926     0.052     2.297     2.370
   190   7 N        2.822    -0.094    23.079     7.135
   191   1 H        0.860     0.222     1.001     1.568
   192   6 C        2.960    -0.030    28.735     8.792
   193   1 H        0.926     0.051     2.303     2.373
   194   6 C        2.768     0.210    23.554     7.948
   195   8 O        0.856    -0.366    21.008     6.145
   196   7 N        2.631    -0.338    28.693     7.955
   197   1 H        0.860     0.181     1.206     1.720
   198   6 C        3.795     0.027    20.127     6.388
   199   1 H        0.925     0.064     2.155     2.296
   200   6 C        3.857    -0.023    20.939     6.508
   201   1 H        0.925     0.057     2.239     2.340
   202   6 C        3.754    -0.115    22.757     6.802
   203   1 H        0.925     0.048     2.348     2.396
   204   1 H        0.925     0.046     2.366     2.405
   205   1 H        0.925     0.049     2.332     2.388
   206   6 C        3.807    -0.058    21.614     6.618
   207   1 H        0.924     0.032     2.556     2.500
   208   1 H        0.925     0.036     2.506     2.476
   209   6 C        3.749    -0.106    22.588     6.778
   210   1 H        0.924     0.031     2.579     2.511
   211   1 H        0.924     0.042     2.416     2.431
   212   1 H        0.924     0.029     2.595     2.519
   213   6 C        2.751     0.274    22.363     7.743
   214   8 O        0.861    -0.520    24.239     6.601
   215   7 N        2.689    -0.156    24.371     7.332
   216   1 H        0.860     0.232     0.958     1.533
   217   6 C        3.793     0.029    20.088     6.383
   218   1 H        0.924     0.078     2.002     2.212
   219   6 C        3.863    -0.015    20.795     6.485
   220   1 H        0.924     0.063     2.163     2.300
   221   6 C        3.757    -0.118    22.810     6.809
   222   1 H        0.924     0.050     2.315     2.379
   223   1 H        0.925     0.035     2.522     2.484
   224   1 H        0.925     0.062     2.174     2.306
   225   6 C        3.807    -0.062    21.677     6.628
   226   1 H        0.924     0.034     2.537     2.491
   227   1 H        0.925     0.041     2.438     2.442
   228   6 C        3.756    -0.107    22.609     6.780
   229   1 H        0.925     0.055     2.260     2.351
   230   1 H        0.925     0.034     2.532     2.488
   231   1 H        0.924     0.029     2.597     2.520
   232   6 C        2.758     0.207    23.615     7.958
   233   8 O        0.856    -0.351    20.724     6.104
   234   1 H        0.860     0.214     1.036     1.595
   235   1 H        0.923     0.079     1.987     2.204
   236   1 H        0.860     0.197     1.121     1.659
   237   1 H        0.923     0.055     2.264     2.353
   238   1 H        0.860     0.188     1.167     1.692
   239   1 H        0.923     0.046     2.371     2.408
   240   1 H        0.860     0.182     1.205     1.720
   241   1 H        0.923     0.049     2.328     2.386
   242   1 H        0.860     0.191     1.154     1.683
   243   1 H        0.923     0.071     2.074     2.252
   244   1 H        0.860     0.204     1.085     1.632
   245   1 H        0.923     0.062     2.181     2.309
   246   1 H        0.860     0.204     1.085     1.631
   247   1 H        0.923     0.071     2.071     2.250

 Mol. C6AA /au·bohr⁶  :     607909.940006
 Mol. C8AA /au·bohr⁸  :   14175155.641097
 Mol. α(0) /au        :       1194.468425


Wiberg/Mayer (AO) data.
largest (>0.10) Wiberg bond orders for each atom

 ---------------------------------------------------------------------------
     #   Z sym  total        # sym  WBO       # sym  WBO       # sym  WBO
 ---------------------------------------------------------------------------
     1   6 C    3.857 --    17 O    1.649     2 N    1.175    21 C    0.930
     2   7 N    3.505 --     3 C    1.203     1 C    1.175    33 H    0.881
                            17 O    0.138
     3   6 C    3.509 --     2 N    1.203    14 C    1.089     5 C    1.037
     4   6 C    3.907 --    15 C    1.013    35 H    0.968    34 H    0.967
                            12 O    0.926
     5   6 C    3.968 --     3 C    1.037     6 C    0.966    37 H    0.954
                            36 H    0.932
     6   6 C    3.956 --    11 C    1.423     7 C    1.402     5 C    0.966
                             9 C    0.108
     7   6 C    3.984 --     8 C    1.447     6 C    1.402    38 H    0.969
                            10 C    0.114
     8   6 C    3.988 --     7 C    1.447     9 C    1.434    39 H    0.970
                            11 C    0.109
     9   6 C    3.984 --    10 C    1.440     8 C    1.434    40 H    0.970
                             6 C    0.108
    10   6 C    3.985 --     9 C    1.440    11 C    1.433    41 H    0.970
                             7 C    0.114
    11   6 C    3.985 --    10 C    1.433     6 C    1.423    42 H    0.965
                             8 C    0.109
    12   8 O    2.245 --    14 C    1.112     4 C    0.926    13 O    0.150
    13   8 O    1.855 --    14 C    1.592    12 O    0.150
    14   6 C    3.872 --    13 O    1.592    12 O    1.112     3 C    1.089
    15   6 C    3.984 --     4 C    1.013    43 H    0.985    44 H    0.982
                            45 H    0.980
    16   6 C    3.962 --    18 C    1.002    22 N    0.978    46 H    0.965
                            47 H    0.959
    17   8 O    1.898 --     1 C    1.649     2 N    0.138
    18   6 C    3.969 --    16 C    1.002    19 S    0.991    48 H    0.970
                            49 H    0.965
    19  16 S    2.116 --    20 C    0.994    18 C    0.991
    20   6 C    3.970 --    19 S    0.994    21 C    0.986    50 H    0.967
                            51 H    0.965
    21   6 C    3.963 --    20 C    0.986    22 N    0.981    52 H    0.941
                             1 C    0.930
    22   7 N    3.175 --    21 C    0.981    16 C    0.978    23 S    0.883
    23  16 S    4.813 --    31 O    1.553    30 O    1.542    22 N    0.883
                            24 C    0.735
    24   6 C    3.942 --    29 C    1.422    25 C    1.389    23 S    0.735
    25   6 C    3.979 --    26 C    1.459    24 C    1.389    53 H    0.963
                            28 C    0.107
    26   6 C    3.984 --    25 C    1.459    27 C    1.390    54 H    0.962
                            29 C    0.104
    27   6 C    3.978 --    28 C    1.411    26 C    1.390    32 C    1.030
    28   6 C    3.984 --    29 C    1.431    27 C    1.411    55 H    0.965
                            25 C    0.107
    29   6 C    3.985 --    28 C    1.431    24 C    1.422    56 H    0.966
                            26 C    0.104
    30   8 O    1.848 --    23 S    1.542    31 O    0.106
    31   8 O    1.843 --    23 S    1.553    30 O    0.106
    32   6 C    3.985 --    27 C    1.030    57 H    0.983    58 H    0.965
                            59 H    0.962
    33   1 H    0.940 --     2 N    0.881
    34   1 H    0.993 --     4 C    0.967
    35   1 H    0.995 --     4 C    0.968
    36   1 H    0.965 --     5 C    0.932
    37   1 H    0.994 --     5 C    0.954
    38   1 H    0.999 --     7 C    0.969
    39   1 H    0.997 --     8 C    0.970
    40   1 H    0.997 --     9 C    0.970
    41   1 H    0.997 --    10 C    0.970
    42   1 H    0.996 --    11 C    0.965
    43   1 H    0.996 --    15 C    0.985
    44   1 H    0.994 --    15 C    0.982
    45   1 H    0.994 --    15 C    0.980
    46   1 H    0.998 --    16 C    0.965
    47   1 H    0.996 --    16 C    0.959
    48   1 H    0.991 --    18 C    0.970
    49   1 H    0.990 --    18 C    0.965
    50   1 H    0.991 --    20 C    0.967
    51   1 H    0.993 --    20 C    0.965
    52   1 H    0.992 --    21 C    0.941
    53   1 H    0.994 --    25 C    0.963
    54   1 H    0.992 --    26 C    0.962
    55   1 H    0.994 --    28 C    0.965
    56   1 H    0.997 --    29 C    0.966
    57   1 H    0.995 --    32 C    0.983
    58   1 H    0.992 --    32 C    0.965
    59   1 H    0.992 --    32 C    0.962
    60   7 N    2.972 --    62 C    1.025    61 H    0.943   234 H    0.937
    61   1 H    0.970 --    60 N    0.943
    62   6 C    3.972 --    60 N    1.025    63 H    0.947    78 C    0.947
                            64 C    0.942
    63   1 H    0.987 --    62 C    0.947
    64   6 C    3.967 --    67 C    1.013    65 H    0.964    66 H    0.964
                            62 C    0.942
    65   1 H    0.995 --    64 C    0.964
    66   1 H    0.995 --    64 C    0.964
    67   6 C    3.983 --    76 C    1.411    68 C    1.406    64 C    1.013
                            72 C    0.107
    68   6 C    3.986 --    70 C    1.444    67 C    1.406    69 H    0.969
                            74 C    0.112
    69   1 H    0.998 --    68 C    0.969
    70   6 C    3.989 --    68 C    1.444    72 C    1.438    71 H    0.970
                            76 C    0.110
    71   1 H    0.998 --    70 C    0.970
    72   6 C    3.985 --    70 C    1.438    74 C    1.436    73 H    0.971
                            67 C    0.107
    73   1 H    0.998 --    72 C    0.971
    74   6 C    3.991 --    76 C    1.441    72 C    1.436    75 H    0.972
                            68 C    0.112
    75   1 H    0.998 --    74 C    0.972
    76   6 C    3.986 --    74 C    1.441    67 C    1.411    77 H    0.963
                            70 C    0.110
    77   1 H    0.999 --    76 C    0.963
    78   6 C    3.940 --    79 O    1.618    80 N    1.302    62 C    0.947
    79   8 O    1.923 --    78 C    1.618    80 N    0.191
    80   7 N    3.476 --    78 C    1.302    82 C    0.981    81 H    0.910
                            79 O    0.191
    81   1 H    0.955 --    80 N    0.910
    82   6 C    3.969 --    90 C    0.987    80 N    0.981    83 H    0.947
                            84 C    0.941
    83   1 H    0.992 --    82 C    0.947
    84   6 C    3.981 --    85 H    0.977    86 H    0.957    82 C    0.941
                            87 C    0.939
    85   1 H    0.998 --    84 C    0.977
    86   1 H    0.997 --    84 C    0.957
    87   6 C    3.941 --    89 O    1.501    88 O    1.469    84 C    0.939
    88   8 O    1.827 --    87 C    1.469    89 O    0.216
    89   8 O    1.789 --    87 C    1.501    88 O    0.216
    90   6 C    3.886 --    91 O    1.903    82 C    0.987   235 H    0.935
    91   8 O    2.055 --    90 C    1.903
    92   7 N    2.991 --    94 C    1.033    93 H    0.952   236 H    0.945
    93   1 H    0.967 --    92 N    0.952
    94   6 C    3.971 --    92 N    1.033   114 C    0.976    96 C    0.950
                            95 H    0.929
    95   1 H    0.988 --    94 C    0.929
    96   6 C    3.977 --    99 C    1.006    98 H    0.972    97 H    0.967
                            94 C    0.950
    97   1 H    0.994 --    96 C    0.967
    98   1 H    0.997 --    96 C    0.972
    99   6 C    3.988 --    96 C    1.006   102 C    0.995   101 H    0.971
                           100 H    0.968
   100   1 H    0.995 --    99 C    0.968
   101   1 H    0.995 --    99 C    0.971
   102   6 C    3.949 --    99 C    0.995   105 N    0.982   104 H    0.964
                           103 H    0.964
   103   1 H    0.992 --   102 C    0.964
   104   1 H    0.989 --   102 C    0.964
   105   7 N    3.443 --   107 C    1.299   102 C    0.982   106 H    0.914
                           108 N    0.102
   106   1 H    0.943 --   105 N    0.914
   107   6 C    3.974 --   108 N    1.337   111 N    1.307   105 N    1.299
   108   7 N    3.407 --   107 C    1.337   109 H    0.917   110 H    0.871
                           111 N    0.106   105 N    0.102
   109   1 H    0.941 --   108 N    0.917
   110   1 H    0.942 --   108 N    0.871
   111   7 N    3.382 --   107 C    1.307   113 H    0.924   112 H    0.911
                           108 N    0.106
   112   1 H    0.931 --   111 N    0.911
   113   1 H    0.948 --   111 N    0.924
   114   6 C    3.872 --   115 O    1.881    94 C    0.976   237 H    0.933
   115   8 O    2.040 --   114 C    1.881
   116   7 N    3.025 --   118 C    1.002   117 H    0.958   238 H    0.947
   117   1 H    0.975 --   116 N    0.958
   118   6 C    3.968 --   116 N    1.002   136 C    0.970   120 C    0.962
                           119 H    0.957
   119   1 H    0.993 --   118 C    0.957
   120   6 C    3.975 --   123 C    1.003   122 H    0.973   121 H    0.973
                           118 C    0.962
   121   1 H    0.996 --   120 C    0.973
   122   1 H    0.995 --   120 C    0.973
   123   6 C    3.992 --   120 C    1.003   126 C    1.002   125 H    0.976
                           124 H    0.972
   124   1 H    0.996 --   123 C    0.972
   125   1 H    0.998 --   123 C    0.976
   126   6 C    3.988 --   129 C    1.006   123 C    1.002   128 H    0.977
                           127 H    0.971
   127   1 H    0.995 --   126 C    0.971
   128   1 H    0.996 --   126 C    0.977
   129   6 C    3.919 --   126 C    1.006   130 H    0.967   131 H    0.964
                           132 N    0.963
   130   1 H    0.987 --   129 C    0.967
   131   1 H    0.988 --   129 C    0.964
   132   7 N    3.647 --   129 C    0.963   134 H    0.892   135 H    0.888
                           133 H    0.885
   133   1 H    0.904 --   132 N    0.885
   134   1 H    0.904 --   132 N    0.892
   135   1 H    0.901 --   132 N    0.888
   136   6 C    3.883 --   137 O    1.904   118 C    0.970   239 H    0.938
   137   8 O    2.054 --   136 C    1.904
   138   7 N    3.002 --   140 C    1.034   240 H    0.953   139 H    0.949
   139   1 H    0.965 --   138 N    0.949
   140   6 C    3.974 --   138 N    1.034   156 C    0.976   142 C    0.935
                           141 H    0.935
   141   1 H    0.989 --   140 C    0.935
   142   6 C    3.977 --   145 C    1.009   143 H    0.973   144 H    0.957
                           140 C    0.935
   143   1 H    0.997 --   142 C    0.973
   144   1 H    0.990 --   142 C    0.957
   145   6 C    3.984 --   146 C    1.418   154 C    1.401   142 C    1.009
                           150 C    0.108
   146   6 C    3.986 --   148 C    1.438   145 C    1.418   147 H    0.968
                           152 C    0.107
   147   1 H    0.998 --   146 C    0.968
   148   6 C    3.989 --   146 C    1.438   150 C    1.435   149 H    0.973
                           154 C    0.115
   149   1 H    0.998 --   148 C    0.973
   150   6 C    3.987 --   152 C    1.437   148 C    1.435   151 H    0.973
                           145 C    0.108
   151   1 H    0.999 --   150 C    0.973
   152   6 C    3.988 --   154 C    1.447   150 C    1.437   153 H    0.970
                           146 C    0.107
   153   1 H    0.997 --   152 C    0.970
   154   6 C    3.985 --   152 C    1.447   145 C    1.401   155 H    0.967
                           148 C    0.115
   155   1 H    0.996 --   154 C    0.967
   156   6 C    3.866 --   157 O    1.885   140 C    0.976   241 H    0.936
   157   8 O    2.033 --   156 C    1.885
   158   7 N    2.986 --   160 C    1.031   242 H    0.950   159 H    0.945
   159   1 H    0.964 --   158 N    0.945
   160   6 C    3.972 --   158 N    1.031   177 C    0.983   162 C    0.949
                           161 H    0.919
   161   1 H    0.986 --   160 C    0.919
   162   6 C    3.979 --   165 C    1.005   164 H    0.968   163 H    0.966
                           160 C    0.949
   163   1 H    0.994 --   162 C    0.966
   164   1 H    0.995 --   162 C    0.968
   165   6 C    3.979 --   166 C    1.405   175 C    1.401   162 C    1.005
   166   6 C    3.988 --   168 C    1.458   165 C    1.405   167 H    0.969
                           173 C    0.103
   167   1 H    0.998 --   166 C    0.969
   168   6 C    3.982 --   166 C    1.458   170 C    1.357   169 H    0.968
                           175 C    0.106
   169   1 H    0.998 --   168 C    0.968
   170   6 C    3.926 --   173 C    1.359   168 C    1.357   171 O    1.077
   171   8 O    2.063 --   170 C    1.077   172 H    0.830
   172   1 H    0.854 --   171 O    0.830
   173   6 C    3.980 --   175 C    1.453   170 C    1.359   174 H    0.968
                           166 C    0.103
   174   1 H    0.998 --   173 C    0.968
   175   6 C    3.985 --   173 C    1.453   165 C    1.401   176 H    0.963
                           168 C    0.106
   176   1 H    0.997 --   175 C    0.963
   177   6 C    3.862 --   178 O    1.873   160 C    0.983   243 H    0.935
   178   8 O    2.023 --   177 C    1.873
   179   7 N    3.005 --   181 C    1.013   244 H    0.942   180 H    0.911
   180   1 H    0.958 --   179 N    0.911
   181   6 C    3.967 --   179 N    1.013   194 C    0.978   182 H    0.962
                           183 C    0.933
   182   1 H    0.989 --   181 C    0.962
   183   6 C    3.963 --   186 C    1.013   185 H    0.962   184 H    0.959
                           181 C    0.933
   184   1 H    0.995 --   183 C    0.959
   185   1 H    0.993 --   183 C    0.962
   186   6 C    3.965 --   192 C    1.554   187 N    1.270   183 C    1.013
   187   7 N    2.992 --   188 C    1.527   186 C    1.270   190 N    0.103
   188   6 C    3.954 --   187 N    1.527   190 N    1.294   189 H    0.964
                           192 C    0.117
   189   1 H    0.997 --   188 C    0.964
   190   7 N    3.596 --   188 C    1.294   192 C    1.206   191 H    0.922
                           187 N    0.103
   191   1 H    0.950 --   190 N    0.922
   192   6 C    3.929 --   186 C    1.554   190 N    1.206   193 H    0.968
                           188 C    0.117
   193   1 H    0.997 --   192 C    0.968
   194   6 C    3.875 --   195 O    1.877   181 C    0.978   245 H    0.936
   195   8 O    2.062 --   194 C    1.877
   196   7 N    2.974 --   198 C    1.022   197 H    0.945   246 H    0.943
   197   1 H    0.967 --   196 N    0.945
   198   6 C    3.962 --   196 N    1.022   199 H    0.956   200 C    0.944
                           213 C    0.937
   199   1 H    0.992 --   198 C    0.956
   200   6 C    3.967 --   202 C    1.011   206 C    0.990   201 H    0.962
                           198 C    0.944
   201   1 H    0.995 --   200 C    0.962
   202   6 C    3.991 --   200 C    1.011   204 H    0.981   205 H    0.980
                           203 H    0.977
   203   1 H    0.997 --   202 C    0.977
   204   1 H    0.998 --   202 C    0.981
   205   1 H    0.996 --   202 C    0.980
   206   6 C    3.995 --   209 C    1.018   200 C    0.990   207 H    0.977
                           208 H    0.974
   207   1 H    0.999 --   206 C    0.977
   208   1 H    0.999 --   206 C    0.974
   209   6 C    3.990 --   206 C    1.018   210 H    0.986   211 H    0.982
                           212 H    0.977
   210   1 H    0.999 --   209 C    0.986
   211   1 H    0.998 --   209 C    0.982
   212   1 H    0.998 --   209 C    0.977
   213   6 C    3.934 --   214 O    1.609   215 N    1.314   198 C    0.937
   214   8 O    1.914 --   213 C    1.609   215 N    0.194
   215   7 N    3.480 --   213 C    1.314   217 C    0.972   216 H    0.894
                           214 O    0.194
   216   1 H    0.946 --   215 N    0.894
   217   6 C    3.964 --   232 C    0.976   215 N    0.972   218 H    0.957
                           219 C    0.952
   218   1 H    0.994 --   217 C    0.957
   219   6 C    3.986 --   221 C    1.008   225 C    0.989   220 H    0.959
                           217 C    0.952
   220   1 H    0.996 --   219 C    0.959
   221   6 C    3.992 --   219 C    1.008   223 H    0.984   222 H    0.983
                           224 H    0.979
   222   1 H    0.997 --   221 C    0.983
   223   1 H    0.999 --   221 C    0.984
   224   1 H    0.995 --   221 C    0.979
   225   6 C    3.993 --   228 C    1.014   219 C    0.989   227 H    0.978
                           226 H    0.974
   226   1 H    0.999 --   225 C    0.974
   227   1 H    0.998 --   225 C    0.978
   228   6 C    3.989 --   225 C    1.014   231 H    0.989   230 H    0.986
                           229 H    0.979
   229   1 H    0.997 --   228 C    0.979
   230   1 H    0.998 --   228 C    0.986
   231   1 H    0.999 --   228 C    0.989
   232   6 C    3.883 --   233 O    1.889   217 C    0.976   247 H    0.939
   233   8 O    2.076 --   232 C    1.889
   234   1 H    0.954 --    60 N    0.937
   235   1 H    0.993 --    90 C    0.935
   236   1 H    0.961 --    92 N    0.945
   237   1 H    0.992 --   114 C    0.933
   238   1 H    0.964 --   116 N    0.947
   239   1 H    0.995 --   136 C    0.938
   240   1 H    0.967 --   138 N    0.953
   241   1 H    0.991 --   156 C    0.936
   242   1 H    0.964 --   158 N    0.950
   243   1 H    0.991 --   177 C    0.935
   244   1 H    0.958 --   179 N    0.942
   245   1 H    0.992 --   194 C    0.936
   246   1 H    0.958 --   196 N    0.943
   247   1 H    0.994 --   232 C    0.939
 ---------------------------------------------------------------------------

Topologies differ in total number of bonds
Writing topology from bond orders to xtbtopo.mol

molecular dipole:
                 x           y           z       tot (Debye)
 q only:       43.807      86.232     246.729
   full:       43.005      85.944     246.302     672.005
molecular quadrupole (traceless):
                xx          xy          yy          xz          yz          zz
 q only:   -16244.813    2374.521  -11476.761    7370.436   16239.958   27721.574
  q+dip:   -16266.723    2345.667  -11458.611    7333.354   16122.013   27725.334
   full:   -16264.538    2347.248  -11457.561    7336.945   16122.529   27722.100


           -------------------------------------------------
Note: The following floating-point exceptions are signalling: IEEE_UNDERFLOW_FLAG IEEE_DENORMAL
normal termination of xtb
          | TOTAL ENERGY             -368.939390532922 Eh   |
          | GRADIENT NORM               0.303752558644 Eh/α |
          | HOMO-LUMO GAP               0.299107819326 eV   |
           -------------------------------------------------

------------------------------------------------------------------------
 * finished run on 2026/01/05 at 09:07:44.715     
------------------------------------------------------------------------
 total:
 * wall-time:     0 d,  0 h,  0 min,  2.758 sec
 *  cpu-time:     0 d,  0 h,  0 min, 40.522 sec
 * ratio c/w:    14.690 speedup
 SCF:
 * wall-time:     0 d,  0 h,  0 min,  2.686 sec
 *  cpu-time:     0 d,  0 h,  0 min, 39.440 sec
 * ratio c/w:    14.685 speedup

