      -----------------------------------------------------------      
     |                   =====================                   |     
     |                           x T B                           |     
     |                   =====================                   |     
     |                         S. Grimme                         |     
     |          Mulliken Center for Theoretical Chemistry        |     
     |                    University of Bonn                     |     
      -----------------------------------------------------------      

   * xtb version 6.7.1 (edcfbbe) compiled by 'conda@c0858423619e' on 2025-09-04

   xtb is free software: you can redistribute it and/or modify it under
   the terms of the GNU Lesser General Public License as published by
   the Free Software Foundation, either version 3 of the License, or
   (at your option) any later version.
   
   xtb is distributed in the hope that it will be useful,
   but WITHOUT ANY WARRANTY; without even the implied warranty of
   MERCHANTABILITY or FITNESS FOR A PARTICULAR PURPOSE.  See the
   GNU Lesser General Public License for more details.
   
   Cite this work as:
   * C. Bannwarth, E. Caldeweyher, S. Ehlert, A. Hansen, P. Pracht,
     J. Seibert, S. Spicher, S. Grimme, WIREs Comput. Mol. Sci., 2020, 11,
     e01493. DOI: 10.1002/wcms.1493
   
   for GFN2-xTB:
   * C. Bannwarth, S. Ehlert and S. Grimme., J. Chem. Theory Comput., 2019,
     15, 1652-1671. DOI: 10.1021/acs.jctc.8b01176
   for GFN1-xTB:
   * S. Grimme, C. Bannwarth, P. Shushkov, J. Chem. Theory Comput., 2017,
     13, 1989-2009. DOI: 10.1021/acs.jctc.7b00118
   for GFN0-xTB:
   * P. Pracht, E. Caldeweyher, S. Ehlert, S. Grimme, ChemRxiv, 2019, preprint.
     DOI: 10.26434/chemrxiv.8326202.v1
   for GFN-FF:
   * S. Spicher and S. Grimme, Angew. Chem. Int. Ed., 2020, 59, 15665-15673.
     DOI: 10.1002/anie.202004239
   
   for ALPB and GBSA implicit solvation:
   * S. Ehlert, M. Stahn, S. Spicher, S. Grimme, J. Chem. Theory Comput.,
     2021, 17, 4250-4261. DOI: 10.1021/acs.jctc.1c00471
   
   for ddCOSMO and CPCM-X implicit solvation:
   * M. Stahn, S. Ehlert, S. Grimme, J. Phys. Chem. A,
     2023, XX, XXXX-XXXX. DOI: 10.1021/acs.jpca.3c04382
   
   for DFT-D4:
   * E. Caldeweyher, C. Bannwarth and S. Grimme, J. Chem. Phys., 2017,
     147, 034112. DOI: 10.1063/1.4993215
   * E. Caldeweyher, S. Ehlert, A. Hansen, H. Neugebauer, S. Spicher,
     C. Bannwarth and S. Grimme, J. Chem. Phys., 2019, 150, 154122.
     DOI: 10.1063/1.5090222
   * E. Caldeweyher, J.-M. Mewes, S. Ehlert and S. Grimme, Phys. Chem. Chem. Phys.
     2020, 22, 8499-8512. DOI: 10.1039/D0CP00502A
   
   for sTDA-xTB:
   * S. Grimme and C. Bannwarth, J. Chem. Phys., 2016, 145, 054103.
     DOI: 10.1063/1.4959605
   
   in the mass-spec context:
   * V. Asgeirsson, C. Bauer and S. Grimme, Chem. Sci., 2017, 8, 4879.
     DOI: 10.1039/c7sc00601b
   * J. Koopman and S. Grimme, ACS Omega 2019, 4, 12, 15120-15133.
     DOI: 10.1021/acsomega.9b02011
   
   for metadynamics refer to:
   * S. Grimme, J. Chem. Theory Comput., 2019, 155, 2847-2862
     DOI: 10.1021/acs.jctc.9b00143
   
   for SPH calculations refer to:
   * S. Spicher and S. Grimme, J. Chem. Theory Comput., 2021, 17, 1701-1714
     DOI: 10.1021/acs.jctc.0c01306
   
   for ONIOM refer to:
   * C. Plett, A. Katbashev, S. Ehlert, S. Grimme, M. Bursch,
     Phys. Chem. Chem. Phys., 2023, 25, 17860-17868. DOI: 10.1039/D3CP02178E
   
   for DIPRO refer to:
   * J. Kohn, N. Gildemeister, S. Grimme, D. Fazzi, A. Hansen,
     J. Chem. Phys., 2023, just accepted.
   
   for PTB refer to:
   * S. Grimme, M. Mueller, A. Hansen, J. Chem. Phys., 2023, 158, 124111.
     DOI: 10.1063/5.0137838
   
   with help from (in alphabetical order)
   P. Atkinson, C. Bannwarth, F. Bohle, G. Brandenburg, E. Caldeweyher
   M. Checinski, S. Dohm, S. Ehlert, S. Ehrlich, I. Gerasimov, C. Hölzer
   A. Katbashev, J. Kohn, J. Koopman, C. Lavigne, S. Lehtola, F. März, M. Müller,
   F. Musil, H. Neugebauer, J. Pisarek, C. Plett, P. Pracht, F. Pultar,
   J. Seibert, P. Shushkov, S. Spicher, M. Stahn, M. Steiner, T. Strunk,
   J. Stückrath, T. Rose, and J. Unsleber
   
 * started run on 2026/01/05 at 09:06:50.471     
   ID    Z sym.   atoms
    1    6 C      1, 3-11, 14-16, 18, 20, 21, 24-29, 32
    2    7 N      2, 22
    3    8 O      12, 13, 17, 30, 31
    4   16 S      19, 23
    5    1 H      33-59

           -------------------------------------------------
          |                Calculation Setup                |
           -------------------------------------------------

          program call               : xtb /home/antonio_mesquita/Documentos/gmx_ISA_project/testes_arquivos_primeiros/gmx_ISA_testes/testes_qm_xtb/QM_analysis/QM_FRAMES_CAPPED/frame_2200ps/ligand_isolated_2200ps.xyz --gfn 2 --alpb water --chrg 1 --etemp 1500 --cycles 1000
          coordinate file            : /home/antonio_mesquita/Documentos/gmx_ISA_project/testes_arquivos_primeiros/gmx_ISA_testes/testes_qm_xtb/QM_analysis/QM_FRAMES_CAPPED/frame_2200ps/ligand_isolated_2200ps.xyz
          omp threads                :                    16


           -------------------------------------------------
          |                 G F N 2 - x T B                 |
           -------------------------------------------------

        Reference                      10.1021/acs.jctc.8b01176
      * Hamiltonian:
        H0-scaling (s, p, d)           1.850000    2.230000    2.230000
        zeta-weighting                 0.500000
      * Dispersion:
        s8                             2.700000
        a1                             0.520000
        a2                             5.000000
        s9                             5.000000
      * Repulsion:
        kExp                           1.500000    1.000000
        rExp                           1.000000
      * Coulomb:
        alpha                          2.000000
        third order                    shell-resolved
        anisotropic                    true
        a3                             3.000000
        a5                             4.000000
        cn-shift                       1.200000
        cn-exp                         4.000000
        max-rad                        5.000000

      * Solvation model:               ALPB
        Solvent                        water
        Parameter file                 internal GFN2-xTB/ALPB
        Dielectric constant                8.0200E+01
        Reference state                gsolv [1 M gas/solution]
        Free energy shift                  1.0808E-03 Eh       6.7819E-01 kcal/mol
        Temperature                        2.9815E+02 K
        Density                            1.0000E+00 kg/L
        Solvent mass                       1.8000E+01 g/mol
        Interaction kernel             P16
        Born radius scaling (c1)           1.4744E+00
        Born radii integrator          GBOBC
        Born offset                        0.0000E+00 a0       0.0000E+00 AA
        H-bond correction              true
        Ion screening                  false
        Surface tension                    1.0000E-05 Eh       1.5569E+01 dyn/cm
        Grid points                               230 per atom

          ...................................................
          :                      SETUP                      :
          :.................................................:
          :  # basis functions                 167          :
          :  # atomic orbitals                 165          :
          :  # shells                           93          :
          :  # electrons                       170          :
          :  max. iterations                   250          :
          :  Hamiltonian                  GFN2-xTB          :
          :  restarted?                      false          :
          :  GBSA solvation                   true          :
          :  PC potential                    false          :
          :  electronic temp.         1500.0000000     K    :
          :  accuracy                    1.0000000          :
          :  -> integral cutoff          0.2500000E+02      :
          :  -> integral neglect         0.1000000E-07      :
          :  -> SCF convergence          0.1000000E-05 Eh   :
          :  -> wf. convergence          0.1000000E-03 e    :
          :  Broyden damping             0.4000000          :
          :  net charge                          1          :
          :  unpaired electrons                  0          :
          ...................................................

 iter      E             dE          RMSdq      gap      omega  full diag
   1    -96.2357968 -0.962358E+02  0.485E+00    0.90       0.0  T
   2    -96.2712454 -0.354487E-01  0.349E+00    0.30       1.0  T
   3    -96.3178560 -0.466106E-01  0.265E+00    1.56       1.0  T
   4    -96.4130944 -0.952383E-01  0.135E+00    0.69       1.0  T
   5    -96.3954250  0.176694E-01  0.113E+00    0.91       1.0  T
   6    -96.4329621 -0.375371E-01  0.178E-01    0.36       1.0  T
   7    -96.4332253 -0.263218E-03  0.102E-01    0.37       1.0  T
   8    -96.4333345 -0.109253E-03  0.560E-02    0.36       1.0  T
   9    -96.4333636 -0.290990E-04  0.305E-02    0.37       1.0  T
  10    -96.4333781 -0.144188E-04  0.113E-02    0.37       1.2  T
  11    -96.4333776  0.440448E-06  0.997E-03    0.36       1.3  T
  12    -96.4333793 -0.163277E-05  0.586E-03    0.37       2.2  T
  13    -96.4333798 -0.584285E-06  0.107E-03    0.37      12.2  T
  14    -96.4333798  0.679863E-08  0.911E-04    0.37      14.3  T
  15    -96.4333798 -0.959625E-08  0.636E-04    0.37      20.5  T

   *** convergence criteria satisfied after 15 iterations ***

         #    Occupation            Energy/Eh            Energy/eV
      -------------------------------------------------------------
         1        2.0000           -0.8008379             -21.7919
       ...           ...                  ...                  ...
        79        1.9997           -0.4352120             -11.8427
        80        1.9981           -0.4254608             -11.5774
        81        1.9972           -0.4237767             -11.5315
        82        1.9918           -0.4186011             -11.3907
        83        1.9874           -0.4165467             -11.3348
        84        1.9853           -0.4158404             -11.3156
        85        1.6305           -0.3995770             -10.8730 (HOMO)
        86        0.4104           -0.3860921             -10.5061 (LUMO)
        87                         -0.2830532              -7.7023
        88                         -0.2643460              -7.1932
        89                         -0.2510076              -6.8303
        90                         -0.2482842              -6.7562
       ...                                ...                  ...
       165                          1.0251252              27.8951
      -------------------------------------------------------------
                  HL-Gap            0.0134849 Eh            0.3669 eV
             Fermi-level           -0.3925249 Eh          -10.6811 eV

 SCC (total)                   0 d,  0 h,  0 min,  0.258 sec
 SCC setup                      ...        0 min,  0.002 sec (  0.895%)
 Dispersion                     ...        0 min,  0.002 sec (  0.846%)
 classical contributions        ...        0 min,  0.000 sec (  0.164%)
 integral evaluation            ...        0 min,  0.022 sec (  8.465%)
 iterations                     ...        0 min,  0.176 sec ( 67.988%)
 molecular gradient             ...        0 min,  0.056 sec ( 21.512%)
 printout                       ...        0 min,  0.000 sec (  0.118%)

         :::::::::::::::::::::::::::::::::::::::::::::::::::::
         ::                     SUMMARY                     ::
         :::::::::::::::::::::::::::::::::::::::::::::::::::::
         :: total energy             -95.288464664317 Eh    ::
         :: total w/o Gsasa/hb       -95.284410368542 Eh    ::
         :: gradient norm              0.147983971213 Eh/a0 ::
         :: HOMO-LUMO gap              0.366942230209 eV    ::
         ::.................................................::
         :: SCC energy               -96.432366240459 Eh    ::
         :: -> isotropic ES            0.244662166396 Eh    ::
         :: -> anisotropic ES         -0.027121007758 Eh    ::
         :: -> anisotropic XC          0.040736396928 Eh    ::
         :: -> dispersion             -0.070068643283 Eh    ::
         :: -> Gsolv                  -0.097214333980 Eh    ::
         ::    -> Gelec               -0.093160038204 Eh    ::
         ::    -> Gsasa                0.003049430496 Eh    ::
         ::    -> Ghb                 -0.008184485969 Eh    ::
         ::    -> Gshift               0.001080759698 Eh    ::
         :: repulsion energy           1.143901576141 Eh    ::
         :: add. restraining           0.000000000000 Eh    ::
         :: total charge               1.000000000322 e     ::
         :::::::::::::::::::::::::::::::::::::::::::::::::::::

           -------------------------------------------------
          |                Property Printout                |
           -------------------------------------------------

    * Orbital Energies and Occupations

         #    Occupation            Energy/Eh            Energy/eV
      -------------------------------------------------------------
         1        2.0000           -0.8008379             -21.7919
       ...           ...                  ...                  ...
        73        2.0000           -0.4617009             -12.5635
        74        2.0000           -0.4541076             -12.3569
        75        2.0000           -0.4474482             -12.1757
        76        1.9999           -0.4400393             -11.9741
        77        1.9999           -0.4393337             -11.9549
        78        1.9998           -0.4372267             -11.8975
        79        1.9997           -0.4352120             -11.8427
        80        1.9981           -0.4254608             -11.5774
        81        1.9972           -0.4237767             -11.5315
        82        1.9918           -0.4186011             -11.3907
        83        1.9874           -0.4165467             -11.3348
        84        1.9853           -0.4158404             -11.3156
        85        1.6305           -0.3995770             -10.8730 (HOMO)
        86        0.4104           -0.3860921             -10.5061 (LUMO)
        87                         -0.2830532              -7.7023
        88                         -0.2643460              -7.1932
        89                         -0.2510076              -6.8303
        90                         -0.2482842              -6.7562
        91                         -0.2456402              -6.6842
        92                         -0.2441119              -6.6426
        93                         -0.2314538              -6.2982
        94                         -0.1832691              -4.9870
        95                         -0.1806194              -4.9149
        96                         -0.1492355              -4.0609
       ...                                ...                  ...
       165                          1.0251252              27.8951
      -------------------------------------------------------------
                  HL-Gap            0.0134849 Eh            0.3669 eV
             Fermi-level           -0.3925249 Eh          -10.6811 eV

     #   Z          covCN         q      C6AA      α(0)
     1   6 C        2.744     0.280    22.256     7.725
     2   7 N        2.684    -0.076    22.724     7.080
     3   6 C        2.876     0.088    26.041     8.366
     4   6 C        3.709     0.066    19.612     6.329
     5   6 C        3.807    -0.078    21.983     6.674
     6   6 C        2.970     0.034    27.229     8.559
     7   6 C        2.918    -0.035    28.873     8.812
     8   6 C        2.904    -0.028    28.711     8.786
     9   6 C        2.917    -0.024    28.599     8.769
    10   6 C        2.910    -0.033    28.816     8.802
    11   6 C        2.914    -0.039    28.977     8.827
    12   8 O        1.702    -0.238    17.942     5.719
    13   8 O        0.860    -0.424    22.155     6.311
    14   6 C        2.728     0.351    21.045     7.510
    15   6 C        3.746    -0.133    23.135     6.861
    16   6 C        3.828    -0.001    20.576     6.454
    17   8 O        0.858    -0.417    22.033     6.293
    18   6 C        3.789    -0.063    21.723     6.638
    19  16 S        1.964     0.061   138.579    19.813
    20   6 C        3.791    -0.074    21.921     6.668
    21   6 C        3.870     0.024    20.121     6.378
    22   7 N        2.729    -0.260    26.742     7.680
    23  16 S        3.823     1.153   102.368    17.029
    24   6 C        2.957    -0.094    30.359     9.037
    25   6 C        2.938    -0.028    28.706     8.787
    26   6 C        2.916    -0.033    28.825     8.804
    27   6 C        2.955     0.047    26.950     8.515
    28   6 C        2.923    -0.038    28.936     8.821
    29   6 C        2.939    -0.038    28.940     8.823
    30   8 O        0.860    -0.644    27.214     6.994
    31   8 O        0.859    -0.640    27.110     6.981
    32   6 C        3.752    -0.137    23.191     6.867
    33   1 H        0.868     0.282     0.770     1.374
    34   1 H        0.924     0.079     1.989     2.205
    35   1 H        0.924     0.084     1.936     2.176
    36   1 H        0.923     0.116     1.647     2.007
    37   1 H        0.923     0.114     1.664     2.017
    38   1 H        0.925     0.051     2.305     2.374
    39   1 H        0.926     0.062     2.172     2.305
    40   1 H        0.925     0.057     2.234     2.337
    41   1 H        0.925     0.066     2.130     2.282
    42   1 H        0.926     0.069     2.099     2.266
    43   1 H        0.925     0.069     2.100     2.266
    44   1 H        0.924     0.063     2.170     2.303
    45   1 H        0.923     0.069     2.098     2.265
    46   1 H        0.924     0.055     2.253     2.347
    47   1 H        0.924     0.086     1.916     2.165
    48   1 H        0.925     0.121     1.602     1.979
    49   1 H        0.923     0.117     1.640     2.003
    50   1 H        0.924     0.139     1.467     1.894
    51   1 H        0.923     0.131     1.530     1.935
    52   1 H        0.924     0.121     1.607     1.982
    53   1 H        0.926     0.076     2.020     2.222
    54   1 H        0.925     0.089     1.885     2.147
    55   1 H        0.925     0.077     2.013     2.219
    56   1 H        0.924     0.057     2.229     2.335
    57   1 H        0.924     0.068     2.113     2.273
    58   1 H        0.924     0.087     1.913     2.163
    59   1 H        0.924     0.066     2.128     2.281

 Mol. C6AA /au·bohr⁶  :      43367.277373
 Mol. C8AA /au·bohr⁸  :    1116999.452729
 Mol. α(0) /au        :        323.840016


Wiberg/Mayer (AO) data.
largest (>0.10) Wiberg bond orders for each atom

 ---------------------------------------------------------------------------
     #   Z sym  total        # sym  WBO       # sym  WBO       # sym  WBO
 ---------------------------------------------------------------------------
     1   6 C    3.886 --    17 O    1.729     2 N    1.136    21 C    0.935
     2   7 N    3.536 --     3 C    1.303     1 C    1.136    33 H    0.840
                            17 O    0.109
     3   6 C    3.651 --     2 N    1.303     5 C    1.058    14 C    1.031
     4   6 C    3.900 --    15 C    1.012    34 H    0.965    35 H    0.962
                            12 O    0.922
     5   6 C    3.951 --     3 C    1.058    36 H    0.947    37 H    0.935
                             6 C    0.925
     6   6 C    3.936 --     7 C    1.406    11 C    1.393     5 C    0.925
     7   6 C    3.976 --     8 C    1.432     6 C    1.406    38 H    0.965
                            10 C    0.108
     8   6 C    3.976 --     7 C    1.432     9 C    1.431    39 H    0.967
                            11 C    0.110
     9   6 C    3.966 --     8 C    1.431    10 C    1.431    40 H    0.966
    10   6 C    3.973 --    11 C    1.436     9 C    1.431    41 H    0.966
                             7 C    0.108
    11   6 C    3.972 --    10 C    1.436     6 C    1.393    42 H    0.964
                             8 C    0.110
    12   8 O    2.304 --    14 C    1.148     4 C    0.922    13 O    0.177
    13   8 O    1.954 --    14 C    1.658    12 O    0.177
    14   6 C    3.905 --    13 O    1.658    12 O    1.148     3 C    1.031
    15   6 C    3.984 --     4 C    1.012    44 H    0.986    45 H    0.984
                            43 H    0.981
    16   6 C    3.946 --    18 C    0.997    22 N    0.984    46 H    0.959
                            47 H    0.955
    17   8 O    1.991 --     1 C    1.729     2 N    0.109
    18   6 C    3.938 --    19 S    0.998    16 C    0.997    49 H    0.958
                            48 H    0.944
    19  16 S    2.158 --    20 C    1.000    18 C    0.998
    20   6 C    3.944 --    19 S    1.000    21 C    0.989    51 H    0.954
                            50 H    0.945
    21   6 C    3.951 --    20 C    0.989    22 N    0.987     1 C    0.935
                            52 H    0.913
    22   7 N    3.180 --    21 C    0.987    16 C    0.984    23 S    0.883
    23  16 S    4.824 --    31 O    1.555    30 O    1.549    22 N    0.883
                            24 C    0.739
    24   6 C    3.937 --    29 C    1.417    25 C    1.390    23 S    0.739
    25   6 C    3.979 --    26 C    1.462    24 C    1.390    53 H    0.963
                            28 C    0.104
    26   6 C    3.980 --    25 C    1.462    27 C    1.382    54 H    0.961
                            29 C    0.104
    27   6 C    3.976 --    28 C    1.409    26 C    1.382    32 C    1.037
    28   6 C    3.977 --    29 C    1.432    27 C    1.409    55 H    0.963
                            25 C    0.104
    29   6 C    3.983 --    28 C    1.432    24 C    1.417    56 H    0.966
                            26 C    0.104
    30   8 O    1.850 --    23 S    1.549    31 O    0.105
    31   8 O    1.850 --    23 S    1.555    30 O    0.105
    32   6 C    3.982 --    27 C    1.037    57 H    0.978    59 H    0.973
                            58 H    0.950
    33   1 H    0.920 --     2 N    0.840
    34   1 H    0.991 --     4 C    0.965
    35   1 H    0.990 --     4 C    0.962
    36   1 H    0.982 --     5 C    0.947
    37   1 H    0.979 --     5 C    0.935
    38   1 H    0.997 --     7 C    0.965
    39   1 H    0.995 --     8 C    0.967
    40   1 H    0.993 --     9 C    0.966
    41   1 H    0.994 --    10 C    0.966
    42   1 H    0.994 --    11 C    0.964
    43   1 H    0.994 --    15 C    0.981
    44   1 H    0.996 --    15 C    0.986
    45   1 H    0.995 --    15 C    0.984
    46   1 H    0.986 --    16 C    0.959
    47   1 H    0.992 --    16 C    0.955
    48   1 H    0.960 --    18 C    0.944
    49   1 H    0.985 --    18 C    0.958
    50   1 H    0.963 --    20 C    0.945
    51   1 H    0.982 --    20 C    0.954
    52   1 H    0.983 --    21 C    0.913
    53   1 H    0.994 --    25 C    0.963
    54   1 H    0.991 --    26 C    0.961
    55   1 H    0.993 --    28 C    0.963
    56   1 H    0.996 --    29 C    0.966
    57   1 H    0.995 --    32 C    0.978
    58   1 H    0.990 --    32 C    0.950
    59   1 H    0.994 --    32 C    0.973
 ---------------------------------------------------------------------------

Topologies differ in total number of bonds
Writing topology from bond orders to xtbtopo.mol

molecular dipole:
                 x           y           z       tot (Debye)
 q only:       40.488      30.579      89.653
   full:       40.972      30.152      89.730     262.173
molecular quadrupole (traceless):
                xx          xy          yy          xz          yz          zz
 q only:    -2826.674    1937.110   -3917.933    5505.128    4133.927    6744.607
  q+dip:    -2784.524    1931.792   -3967.056    5570.956    4076.729    6751.580
   full:    -2784.114    1929.851   -3965.909    5568.713    4077.552    6750.022


           -------------------------------------------------
          | TOTAL ENERGY              -95.288464664317 Eh   |
          | GRADIENT NORM               0.147983971213 Eh/α |
          | HOMO-LUMO GAP               0.366942230209 eV   |
           -------------------------------------------------

------------------------------------------------------------------------
Note: The following floating-point exceptions are signalling: IEEE_UNDERFLOW_FLAG IEEE_DENORMAL
normal termination of xtb
 * finished run on 2026/01/05 at 09:06:50.749     
------------------------------------------------------------------------
 total:
 * wall-time:     0 d,  0 h,  0 min,  0.278 sec
 *  cpu-time:     0 d,  0 h,  0 min,  4.182 sec
 * ratio c/w:    15.043 speedup
 SCF:
 * wall-time:     0 d,  0 h,  0 min,  0.259 sec
 *  cpu-time:     0 d,  0 h,  0 min,  3.892 sec
 * ratio c/w:    15.033 speedup

