      -----------------------------------------------------------      
     |                   =====================                   |     
     |                           x T B                           |     
     |                   =====================                   |     
     |                         S. Grimme                         |     
     |          Mulliken Center for Theoretical Chemistry        |     
     |                    University of Bonn                     |     
      -----------------------------------------------------------      

   * xtb version 6.7.1 (edcfbbe) compiled by 'conda@c0858423619e' on 2025-09-04

   xtb is free software: you can redistribute it and/or modify it under
   the terms of the GNU Lesser General Public License as published by
   the Free Software Foundation, either version 3 of the License, or
   (at your option) any later version.
   
   xtb is distributed in the hope that it will be useful,
   but WITHOUT ANY WARRANTY; without even the implied warranty of
   MERCHANTABILITY or FITNESS FOR A PARTICULAR PURPOSE.  See the
   GNU Lesser General Public License for more details.
   
   Cite this work as:
   * C. Bannwarth, E. Caldeweyher, S. Ehlert, A. Hansen, P. Pracht,
     J. Seibert, S. Spicher, S. Grimme, WIREs Comput. Mol. Sci., 2020, 11,
     e01493. DOI: 10.1002/wcms.1493
   
   for GFN2-xTB:
   * C. Bannwarth, S. Ehlert and S. Grimme., J. Chem. Theory Comput., 2019,
     15, 1652-1671. DOI: 10.1021/acs.jctc.8b01176
   for GFN1-xTB:
   * S. Grimme, C. Bannwarth, P. Shushkov, J. Chem. Theory Comput., 2017,
     13, 1989-2009. DOI: 10.1021/acs.jctc.7b00118
   for GFN0-xTB:
   * P. Pracht, E. Caldeweyher, S. Ehlert, S. Grimme, ChemRxiv, 2019, preprint.
     DOI: 10.26434/chemrxiv.8326202.v1
   for GFN-FF:
   * S. Spicher and S. Grimme, Angew. Chem. Int. Ed., 2020, 59, 15665-15673.
     DOI: 10.1002/anie.202004239
   
   for ALPB and GBSA implicit solvation:
   * S. Ehlert, M. Stahn, S. Spicher, S. Grimme, J. Chem. Theory Comput.,
     2021, 17, 4250-4261. DOI: 10.1021/acs.jctc.1c00471
   
   for ddCOSMO and CPCM-X implicit solvation:
   * M. Stahn, S. Ehlert, S. Grimme, J. Phys. Chem. A,
     2023, XX, XXXX-XXXX. DOI: 10.1021/acs.jpca.3c04382
   
   for DFT-D4:
   * E. Caldeweyher, C. Bannwarth and S. Grimme, J. Chem. Phys., 2017,
     147, 034112. DOI: 10.1063/1.4993215
   * E. Caldeweyher, S. Ehlert, A. Hansen, H. Neugebauer, S. Spicher,
     C. Bannwarth and S. Grimme, J. Chem. Phys., 2019, 150, 154122.
     DOI: 10.1063/1.5090222
   * E. Caldeweyher, J.-M. Mewes, S. Ehlert and S. Grimme, Phys. Chem. Chem. Phys.
     2020, 22, 8499-8512. DOI: 10.1039/D0CP00502A
   
   for sTDA-xTB:
   * S. Grimme and C. Bannwarth, J. Chem. Phys., 2016, 145, 054103.
     DOI: 10.1063/1.4959605
   
   in the mass-spec context:
   * V. Asgeirsson, C. Bauer and S. Grimme, Chem. Sci., 2017, 8, 4879.
     DOI: 10.1039/c7sc00601b
   * J. Koopman and S. Grimme, ACS Omega 2019, 4, 12, 15120-15133.
     DOI: 10.1021/acsomega.9b02011
   
   for metadynamics refer to:
   * S. Grimme, J. Chem. Theory Comput., 2019, 155, 2847-2862
     DOI: 10.1021/acs.jctc.9b00143
   
   for SPH calculations refer to:
   * S. Spicher and S. Grimme, J. Chem. Theory Comput., 2021, 17, 1701-1714
     DOI: 10.1021/acs.jctc.0c01306
   
   for ONIOM refer to:
   * C. Plett, A. Katbashev, S. Ehlert, S. Grimme, M. Bursch,
     Phys. Chem. Chem. Phys., 2023, 25, 17860-17868. DOI: 10.1039/D3CP02178E
   
   for DIPRO refer to:
   * J. Kohn, N. Gildemeister, S. Grimme, D. Fazzi, A. Hansen,
     J. Chem. Phys., 2023, just accepted.
   
   for PTB refer to:
   * S. Grimme, M. Mueller, A. Hansen, J. Chem. Phys., 2023, 158, 124111.
     DOI: 10.1063/5.0137838
   
   with help from (in alphabetical order)
   P. Atkinson, C. Bannwarth, F. Bohle, G. Brandenburg, E. Caldeweyher
   M. Checinski, S. Dohm, S. Ehlert, S. Ehrlich, I. Gerasimov, C. Hölzer
   A. Katbashev, J. Kohn, J. Koopman, C. Lavigne, S. Lehtola, F. März, M. Müller,
   F. Musil, H. Neugebauer, J. Pisarek, C. Plett, P. Pracht, F. Pultar,
   J. Seibert, P. Shushkov, S. Spicher, M. Stahn, M. Steiner, T. Strunk,
   J. Stückrath, T. Rose, and J. Unsleber
   
 * started run on 2026/01/05 at 09:06:26.794     
   ID    Z sym.   atoms
    1    7 N      1, 21, 33, 38, 53, 69, 88, 109, 117, 120, 126, 145
    2    1 H      2, 4, 6, 7, 10, 12, 14, 16, 18, 22, 24, 26, 27, 29, 30, 34,
                  35, 39, 41, 43, 44, 46, 47, 54, 56, 58, 60-62, 64-66, 70,
                  72, 74, 76-78, 80, 81, 83-85, 89, 91, 93, 94, 97, 99, 102,
                  104, 106, 110, 112, 114, 115, 119, 121, 123, 127, 129, 131,
                  133-135, 137, 138, 140-142, 146, 148, 150, 152-154, 156,
                  157, 159-161, 164-173
    3    6 C      3, 5, 8, 9, 11, 13, 15, 17, 19, 23, 25, 28, 31, 36, 40, 42,
                  45, 48, 51, 55, 57, 59, 63, 67, 71, 73, 75, 79, 82, 86, 90,
                  92, 95, 96, 98, 100, 103, 105, 107, 111, 113, 116, 118,
                  122, 124, 128, 130, 132, 136, 139, 143, 147, 149, 151, 155,
                  158, 162
    4    8 O      20, 32, 37, 49, 50, 52, 68, 87, 101, 108, 125, 144, 163

           -------------------------------------------------
          |                Calculation Setup                |
           -------------------------------------------------

          program call               : xtb /home/antonio_mesquita/Documentos/gmx_ISA_project/testes_arquivos_primeiros/gmx_ISA_testes/testes_qm_xtb/QM_analysis/QM_FRAMES_CAPPED/frame_1400ps/residues_pocket_capped_1400ps.xyz --gfn 2 --alpb water --chrg -1 --etemp 1500 --cycles 1000
          coordinate file            : /home/antonio_mesquita/Documentos/gmx_ISA_project/testes_arquivos_primeiros/gmx_ISA_testes/testes_qm_xtb/QM_analysis/QM_FRAMES_CAPPED/frame_1400ps/residues_pocket_capped_1400ps.xyz
          omp threads                :                    16


molecular fragmentation (1/2 indicates fragments):
111111111111111111112222222222222222222222222222222222222222222222222222
222222222222222222222222222222222222222222222222222222222222222222222222
22222222222222222221122222222
# atoms in fragment 1/2:    22   151
 fragment masses (1/2) :      149.19     1003.22
CMA distance (Bohr)    :  18.254
constraining FC (au)   :  0.0500

           -------------------------------------------------
          |                 G F N 2 - x T B                 |
           -------------------------------------------------

        Reference                      10.1021/acs.jctc.8b01176
      * Hamiltonian:
        H0-scaling (s, p, d)           1.850000    2.230000    2.230000
        zeta-weighting                 0.500000
      * Dispersion:
        s8                             2.700000
        a1                             0.520000
        a2                             5.000000
        s9                             5.000000
      * Repulsion:
        kExp                           1.500000    1.000000
        rExp                           1.000000
      * Coulomb:
        alpha                          2.000000
        third order                    shell-resolved
        anisotropic                    true
        a3                             3.000000
        a5                             4.000000
        cn-shift                       1.200000
        cn-exp                         4.000000
        max-rad                        5.000000

      * Solvation model:               ALPB
        Solvent                        water
        Parameter file                 internal GFN2-xTB/ALPB
        Dielectric constant                8.0200E+01
        Reference state                gsolv [1 M gas/solution]
        Free energy shift                  1.0808E-03 Eh       6.7819E-01 kcal/mol
        Temperature                        2.9815E+02 K
        Density                            1.0000E+00 kg/L
        Solvent mass                       1.8000E+01 g/mol
        Interaction kernel             P16
        Born radius scaling (c1)           1.4744E+00
        Born radii integrator          GBOBC
        Born offset                        0.0000E+00 a0       0.0000E+00 AA
        H-bond correction              true
        Ion screening                  false
        Surface tension                    1.0000E-05 Eh       1.5569E+01 dyn/cm
        Grid points                               230 per atom

          ...................................................
          :                      SETUP                      :
          :.................................................:
          :  # basis functions                 419          :
          :  # atomic orbitals                 419          :
          :  # shells                          255          :
          :  # electrons                       458          :
          :  max. iterations                   250          :
          :  Hamiltonian                  GFN2-xTB          :
          :  restarted?                      false          :
          :  GBSA solvation                   true          :
          :  PC potential                    false          :
          :  electronic temp.         1500.0000000     K    :
          :  accuracy                    1.0000000          :
          :  -> integral cutoff          0.2500000E+02      :
          :  -> integral neglect         0.1000000E-07      :
          :  -> SCF convergence          0.1000000E-05 Eh   :
          :  -> wf. convergence          0.1000000E-03 e    :
          :  Broyden damping             0.4000000          :
          :  net charge                         -1          :
          :  unpaired electrons                  0          :
          ...................................................

 iter      E             dE          RMSdq      gap      omega  full diag
   1   -259.1081275 -0.259108E+03  0.428E+00    1.99       0.0  T
   2   -259.6900530 -0.581925E+00  0.219E+00    1.19       1.0  T
   3   -259.7089508 -0.188978E-01  0.119E+00    1.73       1.0  T
   4   -259.7294448 -0.204940E-01  0.288E-01    1.24       1.0  T
   5   -259.7368647 -0.741990E-02  0.108E-01    1.38       1.0  T
   6   -259.7371281 -0.263425E-03  0.608E-02    1.36       1.0  T
   7   -259.7372437 -0.115628E-03  0.227E-02    1.36       1.0  T
   8   -259.7372639 -0.201808E-04  0.808E-03    1.37       1.0  T
   9   -259.7372656 -0.169075E-05  0.400E-03    1.36       1.9  T
  10   -259.7372660 -0.446454E-06  0.160E-03    1.36       4.7  T
  11   -259.7372661 -0.702177E-07  0.629E-04    1.36      12.1  T
  12   -259.7372661 -0.153897E-07  0.243E-04    1.36      31.3  T

   *** convergence criteria satisfied after 12 iterations ***

         #    Occupation            Energy/Eh            Energy/eV
      -------------------------------------------------------------
         1        2.0000           -0.7277879             -19.8041
       ...           ...                  ...                  ...
       223        2.0000           -0.3680777             -10.0159
       224        1.9999           -0.3597485              -9.7893
       225        1.9992           -0.3512501              -9.5580
       226        1.9973           -0.3453215              -9.3967
       227        1.9953           -0.3426203              -9.3232
       228        1.9915           -0.3398499              -9.2478
       229        1.9913           -0.3397224              -9.2443 (HOMO)
       230        0.0119           -0.2895989              -7.8804 (LUMO)
       231        0.0054           -0.2858498              -7.7784
       232        0.0039           -0.2842669              -7.7353
       233        0.0031           -0.2832227              -7.7069
       234        0.0011           -0.2783588              -7.5745
       ...           ...                  ...                  ...
       419                          0.6328854              17.2217
      -------------------------------------------------------------
                  HL-Gap            0.0501236 Eh            1.3639 eV
             Fermi-level           -0.3139056 Eh           -8.5418 eV

 SCC (total)                   0 d,  0 h,  0 min,  0.702 sec
 SCC setup                      ...        0 min,  0.009 sec (  1.301%)
 Dispersion                     ...        0 min,  0.009 sec (  1.288%)
 classical contributions        ...        0 min,  0.004 sec (  0.527%)
 integral evaluation            ...        0 min,  0.028 sec (  4.055%)
 iterations                     ...        0 min,  0.507 sec ( 72.233%)
 molecular gradient             ...        0 min,  0.142 sec ( 20.202%)
 printout                       ...        0 min,  0.003 sec (  0.389%)

         :::::::::::::::::::::::::::::::::::::::::::::::::::::
         ::                     SUMMARY                     ::
         :::::::::::::::::::::::::::::::::::::::::::::::::::::
         :: total energy            -256.539885507190 Eh    ::
         :: total w/o Gsasa/hb      -256.516446600245 Eh    ::
         :: gradient norm              0.260910607807 Eh/a0 ::
         :: HOMO-LUMO gap              1.363931989048 eV    ::
         ::.................................................::
         :: SCC energy              -259.730069231358 Eh    ::
         :: -> isotropic ES            0.774866521969 Eh    ::
         :: -> anisotropic ES          0.031951444338 Eh    ::
         :: -> anisotropic XC          0.109509787671 Eh    ::
         :: -> dispersion             -0.179900785254 Eh    ::
         :: -> Gsolv                  -0.224065024109 Eh    ::
         ::    -> Gelec               -0.200626117165 Eh    ::
         ::    -> Gsasa                0.008300961203 Eh    ::
         ::    -> Ghb                 -0.032820627846 Eh    ::
         ::    -> Gshift               0.001080759698 Eh    ::
         :: repulsion energy           3.190183724168 Eh    ::
         :: add. restraining           0.000000000000 Eh    ::
         :: total charge              -0.999999999937 e     ::
         :::::::::::::::::::::::::::::::::::::::::::::::::::::

           -------------------------------------------------
          |                Property Printout                |
           -------------------------------------------------

    * Orbital Energies and Occupations

         #    Occupation            Energy/Eh            Energy/eV
      -------------------------------------------------------------
         1        2.0000           -0.7277879             -19.8041
       ...           ...                  ...                  ...
       217        2.0000           -0.3926906             -10.6857
       218        2.0000           -0.3896770             -10.6037
       219        2.0000           -0.3886379             -10.5754
       220        2.0000           -0.3818614             -10.3910
       221        2.0000           -0.3767064             -10.2507
       222        2.0000           -0.3703676             -10.0782
       223        2.0000           -0.3680777             -10.0159
       224        1.9999           -0.3597485              -9.7893
       225        1.9992           -0.3512501              -9.5580
       226        1.9973           -0.3453215              -9.3967
       227        1.9953           -0.3426203              -9.3232
       228        1.9915           -0.3398499              -9.2478
       229        1.9913           -0.3397224              -9.2443 (HOMO)
       230        0.0119           -0.2895989              -7.8804 (LUMO)
       231        0.0054           -0.2858498              -7.7784
       232        0.0039           -0.2842669              -7.7353
       233        0.0031           -0.2832227              -7.7069
       234        0.0011           -0.2783588              -7.5745
       235                         -0.2242944              -6.1034
       236                         -0.2231800              -6.0730
       237                         -0.2205406              -6.0012
       238                         -0.2203874              -5.9970
       239                         -0.2198613              -5.9827
       240                         -0.2189375              -5.9576
       ...                                ...                  ...
       419                          0.6328854              17.2217
      -------------------------------------------------------------
                  HL-Gap            0.0501236 Eh            1.3639 eV
             Fermi-level           -0.3139056 Eh           -8.5418 eV

     #   Z          covCN         q      C6AA      α(0)
     1   7 N        2.633    -0.371    29.590     8.079
     2   1 H        0.860     0.162     1.324     1.803
     3   6 C        3.785     0.042    19.892     6.353
     4   1 H        0.925     0.073     2.052     2.240
     5   6 C        3.811    -0.074    21.905     6.662
     6   1 H        0.925     0.068     2.111     2.272
     7   1 H        0.925     0.045     2.379     2.412
     8   6 C        2.960     0.014    27.707     8.634
     9   6 C        2.915    -0.042    29.044     8.837
    10   1 H        0.926     0.049     2.331     2.388
    11   6 C        2.908    -0.040    28.998     8.830
    12   1 H        0.926     0.039     2.465     2.455
    13   6 C        2.912    -0.041    29.023     8.834
    14   1 H        0.926     0.036     2.501     2.473
    15   6 C        2.907    -0.036    28.901     8.815
    16   1 H        0.925     0.034     2.536     2.490
    17   6 C        2.915    -0.042    29.041     8.837
    18   1 H        0.926     0.025     2.652     2.546
    19   6 C        2.758     0.209    23.570     7.950
    20   8 O        0.858    -0.391    21.508     6.218
    21   7 N        2.630    -0.374    29.648     8.087
    22   1 H        0.860     0.172     1.260     1.758
    23   6 C        3.787     0.031    20.072     6.381
    24   1 H        0.925     0.066     2.130     2.282
    25   6 C        3.803    -0.057    21.605     6.617
    26   1 H        0.924     0.050     2.318     2.381
    27   1 H        0.924     0.050     2.319     2.381
    28   6 C        3.805    -0.102    22.436     6.743
    29   1 H        0.924     0.075     2.029     2.228
    30   1 H        0.924     0.069     2.098     2.265
    31   6 C        2.742     0.292    22.048     7.688
    32   8 O        0.859    -0.538    24.646     6.656
    33   7 N        2.638    -0.295    27.602     7.803
    34   1 H        0.860     0.243     0.911     1.495
    35   1 H        0.860     0.246     0.899     1.485
    36   6 C        2.753     0.265    22.535     7.773
    37   8 O        0.860    -0.532    24.501     6.636
    38   7 N        2.687    -0.181    24.917     7.414
    39   1 H        0.860     0.213     1.040     1.598
    40   6 C        3.798     0.023    20.192     6.398
    41   1 H        0.924     0.080     1.974     2.197
    42   6 C        3.802    -0.054    21.541     6.608
    43   1 H        0.925     0.061     2.191     2.315
    44   1 H        0.924     0.055     2.264     2.353
    45   6 C        3.803    -0.088    22.179     6.705
    46   1 H        0.924     0.028     2.608     2.526
    47   1 H        0.924     0.035     2.514     2.480
    48   6 C        2.686     0.362    20.857     7.474
    49   8 O        0.857    -0.663    27.718     7.059
    50   8 O        0.856    -0.663    27.729     7.060
    51   6 C        2.749     0.277    22.320     7.736
    52   8 O        0.861    -0.515    24.110     6.583
    53   7 N        2.692    -0.164    24.537     7.357
    54   1 H        0.860     0.195     1.133     1.667
    55   6 C        3.798     0.025    20.157     6.393
    56   1 H        0.925     0.073     2.048     2.238
    57   6 C        3.854    -0.014    20.790     6.485
    58   1 H        0.924     0.055     2.260     2.351
    59   6 C        3.755    -0.110    22.661     6.788
    60   1 H        0.924     0.057     2.236     2.338
    61   1 H        0.925     0.055     2.261     2.352
    62   1 H        0.925     0.022     2.704     2.571
    63   6 C        3.754    -0.117    22.794     6.808
    64   1 H        0.924     0.057     2.240     2.340
    65   1 H        0.925     0.039     2.455     2.450
    66   1 H        0.924     0.047     2.357     2.401
    67   6 C        2.758     0.270    22.441     7.758
    68   8 O        0.860    -0.522    24.271     6.605
    69   7 N        2.688    -0.142    24.078     7.288
    70   1 H        0.860     0.220     1.011     1.575
    71   6 C        3.796     0.036    19.970     6.363
    72   1 H        0.925     0.085     1.927     2.171
    73   6 C        3.864    -0.026    21.000     6.517
    74   1 H        0.925     0.075     2.033     2.229
    75   6 C        3.754    -0.119    22.844     6.815
    76   1 H        0.923     0.045     2.385     2.415
    77   1 H        0.924     0.059     2.206     2.323
    78   1 H        0.925     0.046     2.367     2.406
    79   6 C        3.804    -0.067    21.787     6.645
    80   1 H        0.925     0.044     2.399     2.422
    81   1 H        0.924     0.046     2.376     2.411
    82   6 C        3.749    -0.121    22.876     6.821
    83   1 H        0.925     0.051     2.306     2.375
    84   1 H        0.924     0.039     2.466     2.456
    85   1 H        0.925     0.049     2.327     2.385
    86   6 C        2.767     0.205    23.646     7.964
    87   8 O        0.857    -0.380    21.280     6.185
    88   7 N        2.633    -0.373    29.646     8.086
    89   1 H        0.860     0.164     1.307     1.791
    90   6 C        3.785     0.038    19.952     6.362
    91   1 H        0.924     0.084     1.935     2.175
    92   6 C        3.816    -0.072    21.866     6.655
    93   1 H        0.925     0.061     2.183     2.311
    94   1 H        0.925     0.053     2.282     2.362
    95   6 C        2.969     0.003    27.964     8.674
    96   6 C        2.909    -0.045    29.117     8.848
    97   1 H        0.925     0.038     2.471     2.458
    98   6 C        2.908    -0.076    29.908     8.967
    99   1 H        0.925     0.046     2.370     2.407
   100   6 C        2.835     0.144    24.861     8.171
   101   8 O        1.659    -0.454    21.922     6.321
   102   1 H        0.805     0.359     0.567     1.183
   103   6 C        2.913    -0.062    29.544     8.913
   104   1 H        0.925     0.049     2.336     2.390
   105   6 C        2.912    -0.045    29.109     8.847
   106   1 H        0.927     0.054     2.273     2.358
   107   6 C        2.757     0.199    23.764     7.983
   108   8 O        0.857    -0.398    21.650     6.238
   109   7 N        2.632    -0.357    29.198     8.025
   110   1 H        0.860     0.170     1.273     1.767
   111   6 C        3.793     0.048    19.775     6.333
   112   1 H        0.924     0.050     2.319     2.381
   113   6 C        3.807    -0.078    21.991     6.676
   114   1 H        0.925     0.060     2.202     2.321
   115   1 H        0.925     0.076     2.019     2.222
   116   6 C        3.135     0.044    26.801     8.474
   117   7 N        1.893    -0.331    29.450     8.045
   118   6 C        3.123     0.085    25.940     8.340
   119   1 H        0.925     0.044     2.391     2.418
   120   7 N        2.769    -0.108    23.360     7.178
   121   1 H        0.860     0.228     0.972     1.545
   122   6 C        3.043    -0.038    28.908     8.818
   123   1 H        0.926     0.044     2.398     2.422
   124   6 C        2.760     0.204    23.667     7.967
   125   8 O        0.857    -0.374    21.165     6.168
   126   7 N        2.632    -0.379    29.797     8.107
   127   1 H        0.860     0.162     1.321     1.800
   128   6 C        3.789     0.030    20.089     6.383
   129   1 H        0.924     0.044     2.403     2.424
   130   6 C        3.858    -0.031    21.087     6.531
   131   1 H        0.924     0.045     2.382     2.414
   132   6 C        3.754    -0.116    22.781     6.806
   133   1 H        0.925     0.041     2.437     2.441
   134   1 H        0.924     0.056     2.243     2.342
   135   1 H        0.925     0.041     2.436     2.441
   136   6 C        3.803    -0.058    21.621     6.620
   137   1 H        0.924     0.021     2.717     2.578
   138   1 H        0.924     0.038     2.477     2.461
   139   6 C        3.749    -0.112    22.705     6.796
   140   1 H        0.924     0.046     2.376     2.411
   141   1 H        0.925     0.039     2.464     2.455
   142   1 H        0.924     0.041     2.438     2.442
   143   6 C        2.751     0.269    22.461     7.761
   144   8 O        0.859    -0.530    24.467     6.632
   145   7 N        2.687    -0.162    24.513     7.353
   146   1 H        0.860     0.228     0.975     1.547
   147   6 C        3.794     0.035    19.989     6.367
   148   1 H        0.924     0.073     2.050     2.239
   149   6 C        3.857    -0.026    20.992     6.516
   150   1 H        0.924     0.070     2.090     2.261
   151   6 C        3.766    -0.117    22.777     6.802
   152   1 H        0.925     0.063     2.159     2.298
   153   1 H        0.924     0.031     2.574     2.509
   154   1 H        0.925     0.051     2.307     2.375
   155   6 C        3.818    -0.070    21.826     6.649
   156   1 H        0.924     0.026     2.641     2.541
   157   1 H        0.925     0.046     2.369     2.407
   158   6 C        3.749    -0.112    22.702     6.796
   159   1 H        0.923     0.049     2.336     2.390
   160   1 H        0.924     0.044     2.397     2.421
   161   1 H        0.926     0.043     2.415     2.430
   162   6 C        2.763     0.203    23.677     7.969
   163   8 O        0.858    -0.370    21.091     6.157
   164   1 H        0.860     0.188     1.172     1.696
   165   1 H        0.923     0.054     2.271     2.357
   166   1 H        0.860     0.172     1.259     1.758
   167   1 H        0.923     0.079     1.993     2.208
   168   1 H        0.860     0.172     1.261     1.759
   169   1 H        0.923     0.066     2.127     2.281
   170   1 H        0.860     0.181     1.210     1.723
   171   1 H        0.923     0.058     2.226     2.333
   172   1 H        0.860     0.175     1.241     1.745
   173   1 H        0.923     0.071     2.078     2.254

 Mol. C6AA /au·bohr⁶  :     280763.318815
 Mol. C8AA /au·bohr⁸  :    6278602.940960
 Mol. α(0) /au        :        801.546933


Wiberg/Mayer (AO) data.
largest (>0.10) Wiberg bond orders for each atom

 ---------------------------------------------------------------------------
     #   Z sym  total        # sym  WBO       # sym  WBO       # sym  WBO
 ---------------------------------------------------------------------------
     1   7 N    3.024 --     3 C    1.024     2 H    0.958   164 H    0.950
     2   1 H    0.974 --     1 N    0.958
     3   6 C    3.984 --     1 N    1.024    19 C    0.984     4 H    0.945
                             5 C    0.939
     4   1 H    0.994 --     3 C    0.945
     5   6 C    3.988 --     8 C    1.013     7 H    0.965     6 H    0.956
                             3 C    0.939
     6   1 H    0.995 --     5 C    0.956
     7   1 H    0.998 --     5 C    0.965
     8   6 C    3.988 --    17 C    1.412     9 C    1.410     5 C    1.013
                            13 C    0.108
     9   6 C    3.989 --    11 C    1.441     8 C    1.410    10 H    0.970
                            15 C    0.112
    10   1 H    0.998 --     9 C    0.970
    11   6 C    3.989 --     9 C    1.441    13 C    1.439    12 H    0.971
                            17 C    0.111
    12   1 H    0.998 --    11 C    0.971
    13   6 C    3.988 --    11 C    1.439    15 C    1.434    14 H    0.972
                             8 C    0.108
    14   1 H    0.998 --    13 C    0.972
    15   6 C    3.990 --    17 C    1.445    13 C    1.434    16 H    0.971
                             9 C    0.112
    16   1 H    0.999 --    15 C    0.971
    17   6 C    3.991 --    15 C    1.445     8 C    1.412    18 H    0.970
                            11 C    0.111
    18   1 H    0.999 --    17 C    0.970
    19   6 C    3.873 --    20 O    1.885     3 C    0.984   165 H    0.935
    20   8 O    2.033 --    19 C    1.885
    21   7 N    3.022 --    23 C    1.028    22 H    0.961   166 H    0.954
    22   1 H    0.970 --    21 N    0.961
    23   6 C    3.983 --    21 N    1.028    25 C    0.979    36 C    0.940
                            24 H    0.935
    24   1 H    0.995 --    23 C    0.935
    25   6 C    3.990 --    28 C    0.992    23 C    0.979    27 H    0.973
                            26 H    0.971
    26   1 H    0.997 --    25 C    0.971
    27   1 H    0.997 --    25 C    0.973
    28   6 C    3.990 --    25 C    0.992    30 H    0.970    31 C    0.970
                            29 H    0.957
    29   1 H    0.994 --    28 C    0.957
    30   1 H    0.995 --    28 C    0.970
    31   6 C    3.941 --    32 O    1.620    33 N    1.325    28 C    0.970
    32   8 O    1.913 --    31 C    1.620    33 N    0.195
    33   7 N    3.393 --    31 C    1.325    34 H    0.921    35 H    0.917
                            32 O    0.195
    34   1 H    0.941 --    33 N    0.921
    35   1 H    0.939 --    33 N    0.917
    36   6 C    3.934 --    37 O    1.601    38 N    1.290    23 C    0.940
    37   8 O    1.913 --    36 C    1.601    38 N    0.188
    38   7 N    3.460 --    36 C    1.290    40 C    0.983    39 H    0.912
                            37 O    0.188
    39   1 H    0.954 --    38 N    0.912
    40   6 C    3.968 --    42 C    0.983    38 N    0.983    51 C    0.948
                            41 H    0.930
    41   1 H    0.993 --    40 C    0.930
    42   6 C    3.989 --    45 C    1.009    40 C    0.983    43 H    0.973
                            44 H    0.972
    43   1 H    0.996 --    42 C    0.973
    44   1 H    0.996 --    42 C    0.972
    45   6 C    3.993 --    42 C    1.009    46 H    0.966    47 H    0.960
                            48 C    0.935
    46   1 H    0.999 --    45 C    0.966
    47   1 H    0.999 --    45 C    0.960
    48   6 C    3.932 --    49 O    1.488    50 O    1.485    45 C    0.935
    49   8 O    1.770 --    48 C    1.488    50 O    0.214
    50   8 O    1.772 --    48 C    1.485    49 O    0.214
    51   6 C    3.949 --    52 O    1.613    53 N    1.307    40 C    0.948
    52   8 O    1.925 --    51 C    1.613    53 N    0.194
    53   7 N    3.475 --    51 C    1.307    55 C    0.981    54 H    0.908
                            52 O    0.194
    54   1 H    0.962 --    53 N    0.908
    55   6 C    3.961 --    53 N    0.981    57 C    0.958    67 C    0.948
                            56 H    0.942
    56   1 H    0.995 --    55 C    0.942
    57   6 C    3.989 --    59 C    1.009    63 C    1.007    58 H    0.961
                            55 C    0.958
    58   1 H    0.996 --    57 C    0.961
    59   6 C    3.991 --    57 C    1.009    61 H    0.984    62 H    0.983
                            60 H    0.982
    60   1 H    0.996 --    59 C    0.982
    61   1 H    0.997 --    59 C    0.984
    62   1 H    0.999 --    59 C    0.983
    63   6 C    3.994 --    57 C    1.007    65 H    0.985    66 H    0.985
                            64 H    0.984
    64   1 H    0.997 --    63 C    0.984
    65   1 H    0.998 --    63 C    0.985
    66   1 H    0.998 --    63 C    0.985
    67   6 C    3.950 --    68 O    1.612    69 N    1.314    55 C    0.948
    68   8 O    1.931 --    67 C    1.612    69 N    0.191
    69   7 N    3.482 --    67 C    1.314    71 C    0.986    70 H    0.911
                            68 O    0.191
    70   1 H    0.952 --    69 N    0.911
    71   6 C    3.964 --    86 C    0.986    69 N    0.986    73 C    0.940
                            72 H    0.937
    72   1 H    0.992 --    71 C    0.937
    73   6 C    3.978 --    79 C    0.998    75 C    0.995    74 H    0.959
                            71 C    0.940
    74   1 H    0.994 --    73 C    0.959
    75   6 C    3.992 --    73 C    0.995    78 H    0.985    76 H    0.984
                            77 H    0.982
    76   1 H    0.998 --    75 C    0.984
    77   1 H    0.995 --    75 C    0.982
    78   1 H    0.998 --    75 C    0.985
    79   6 C    3.993 --    82 C    1.014    73 C    0.998    80 H    0.976
                            81 H    0.968
    80   1 H    0.998 --    79 C    0.976
    81   1 H    0.998 --    79 C    0.968
    82   6 C    3.985 --    79 C    1.014    84 H    0.986    83 H    0.985
                            85 H    0.982
    83   1 H    0.997 --    82 C    0.985
    84   1 H    0.998 --    82 C    0.986
    85   1 H    0.997 --    82 C    0.982
    86   6 C    3.887 --    87 O    1.880    71 C    0.986   167 H    0.935
    87   8 O    2.039 --    86 C    1.880
    88   7 N    3.015 --    90 C    1.030    89 H    0.959   168 H    0.956
    89   1 H    0.973 --    88 N    0.959
    90   6 C    3.984 --    88 N    1.030   107 C    0.993    92 C    0.945
                            91 H    0.916
    91   1 H    0.993 --    90 C    0.916
    92   6 C    3.990 --    95 C    1.011    94 H    0.974    93 H    0.960
                            90 C    0.945
    93   1 H    0.995 --    92 C    0.960
    94   1 H    0.997 --    92 C    0.974
    95   6 C    3.986 --   105 C    1.415    96 C    1.398    92 C    1.011
    96   6 C    3.989 --    98 C    1.463    95 C    1.398    97 H    0.967
                           103 C    0.105
    97   1 H    0.999 --    96 C    0.967
    98   6 C    3.983 --    96 C    1.463   100 C    1.353    99 H    0.967
                           105 C    0.109
    99   1 H    0.998 --    98 C    0.967
   100   6 C    3.934 --   103 C    1.384    98 C    1.353   101 O    1.064
   101   8 O    2.069 --   100 C    1.064   102 H    0.851
   102   1 H    0.871 --   101 O    0.851
   103   6 C    3.984 --   105 C    1.436   100 C    1.384   104 H    0.968
                            96 C    0.105
   104   1 H    0.997 --   103 C    0.968
   105   6 C    3.986 --   103 C    1.436    95 C    1.415   106 H    0.967
                            98 C    0.109
   106   1 H    0.997 --   105 C    0.967
   107   6 C    3.881 --   108 O    1.867    90 C    0.993   169 H    0.934
   108   8 O    2.030 --   107 C    1.867
   109   7 N    3.030 --   111 C    1.019   170 H    0.950   110 H    0.939
   110   1 H    0.971 --   109 N    0.939
   111   6 C    3.984 --   109 N    1.019   124 C    0.982   112 H    0.960
                           113 C    0.937
   112   1 H    0.997 --   111 C    0.960
   113   6 C    3.990 --   116 C    1.010   114 H    0.966   115 H    0.960
                           111 C    0.937
   114   1 H    0.996 --   113 C    0.966
   115   1 H    0.994 --   113 C    0.960
   116   6 C    3.973 --   122 C    1.573   117 N    1.262   113 C    1.010
   117   7 N    2.990 --   118 C    1.527   116 C    1.262   120 N    0.109
   118   6 C    3.961 --   117 N    1.527   120 N    1.302   119 H    0.963
                           122 C    0.115
   119   1 H    0.998 --   118 C    0.963
   120   7 N    3.589 --   118 C    1.302   122 C    1.188   121 H    0.920
                           117 N    0.109
   121   1 H    0.948 --   120 N    0.920
   122   6 C    3.930 --   116 C    1.573   120 N    1.188   123 H    0.965
                           118 C    0.115
   123   1 H    0.998 --   122 C    0.965
   124   6 C    3.874 --   125 O    1.883   111 C    0.982   171 H    0.941
   125   8 O    2.043 --   124 C    1.883
   126   7 N    3.002 --   128 C    1.014   172 H    0.955   127 H    0.951
   127   1 H    0.974 --   126 N    0.951
   128   6 C    3.982 --   126 N    1.014   129 H    0.956   143 C    0.953
                           130 C    0.952
   129   1 H    0.997 --   128 C    0.956
   130   6 C    3.990 --   132 C    1.003   136 C    0.994   131 H    0.963
                           128 C    0.952
   131   1 H    0.997 --   130 C    0.963
   132   6 C    3.994 --   130 C    1.003   133 H    0.984   135 H    0.981
                           134 H    0.977
   133   1 H    0.998 --   132 C    0.984
   134   1 H    0.997 --   132 C    0.977
   135   1 H    0.998 --   132 C    0.981
   136   6 C    3.996 --   139 C    1.019   130 C    0.994   137 H    0.977
                           138 H    0.970
   137   1 H    1.000 --   136 C    0.977
   138   1 H    0.998 --   136 C    0.970
   139   6 C    3.992 --   136 C    1.019   141 H    0.987   140 H    0.983
                           142 H    0.979
   140   1 H    0.998 --   139 C    0.983
   141   1 H    0.998 --   139 C    0.987
   142   1 H    0.998 --   139 C    0.979
   143   6 C    3.942 --   144 O    1.607   145 N    1.306   128 C    0.953
   144   8 O    1.913 --   143 C    1.607   145 N    0.192
   145   7 N    3.483 --   143 C    1.306   147 C    0.976   146 H    0.900
                           144 O    0.192
   146   1 H    0.948 --   145 N    0.900
   147   6 C    3.965 --   145 N    0.976   162 C    0.969   149 C    0.958
                           148 H    0.956
   148   1 H    0.994 --   147 C    0.956
   149   6 C    3.984 --   151 C    1.006   155 C    0.989   147 C    0.958
Note: The following floating-point exceptions are signalling: IEEE_UNDERFLOW_FLAG IEEE_DENORMAL
normal termination of xtb
                           150 H    0.951
   150   1 H    0.995 --   149 C    0.951
   151   6 C    3.991 --   149 C    1.006   154 H    0.983   153 H    0.982
                           152 H    0.980
   152   1 H    0.995 --   151 C    0.980
   153   1 H    0.999 --   151 C    0.982
   154   1 H    0.997 --   151 C    0.983
   155   6 C    3.994 --   158 C    1.013   149 C    0.989   157 H    0.978
                           156 H    0.976
   156   1 H    0.999 --   155 C    0.976
   157   1 H    0.998 --   155 C    0.978
   158   6 C    3.993 --   155 C    1.013   161 H    0.988   160 H    0.987
                           159 H    0.981
   159   1 H    0.998 --   158 C    0.981
   160   1 H    0.997 --   158 C    0.987
   161   1 H    0.998 --   158 C    0.988
   162   6 C    3.870 --   163 O    1.887   147 C    0.969   173 H    0.938
   163   8 O    2.041 --   162 C    1.887
   164   1 H    0.965 --     1 N    0.950
   165   1 H    0.997 --    19 C    0.935
   166   1 H    0.970 --    21 N    0.954
   167   1 H    0.993 --    86 C    0.935
   168   1 H    0.970 --    88 N    0.956
   169   1 H    0.995 --   107 C    0.934
   170   1 H    0.967 --   109 N    0.950
   171   1 H    0.997 --   124 C    0.941
   172   1 H    0.969 --   126 N    0.955
   173   1 H    0.994 --   162 C    0.938
 ---------------------------------------------------------------------------

Topologies differ in total number of bonds
Writing topology from bond orders to xtbtopo.mol

molecular dipole:
                 x           y           z       tot (Debye)
 q only:      -69.874     -54.244     -84.721
   full:      -69.655     -54.246     -84.385     310.418
molecular quadrupole (traceless):
                xx          xy          yy          xz          yz          zz
 q only:      206.924   -5723.768    3146.695   -8780.638   -6976.980   -3353.619
  q+dip:      198.181   -5708.364    3132.728   -8717.691   -6942.391   -3330.908
   full:      199.490   -5709.251    3133.376   -8720.343   -6941.111   -3332.866


           -------------------------------------------------
          | TOTAL ENERGY             -256.539885507190 Eh   |
          | GRADIENT NORM               0.260910607807 Eh/α |
          | HOMO-LUMO GAP               1.363931989048 eV   |
           -------------------------------------------------

------------------------------------------------------------------------
 * finished run on 2026/01/05 at 09:06:27.563     
------------------------------------------------------------------------
 total:
 * wall-time:     0 d,  0 h,  0 min,  0.768 sec
 *  cpu-time:     0 d,  0 h,  0 min, 11.074 sec
 * ratio c/w:    14.411 speedup
 SCF:
 * wall-time:     0 d,  0 h,  0 min,  0.704 sec
 *  cpu-time:     0 d,  0 h,  0 min, 10.151 sec
 * ratio c/w:    14.419 speedup

