      -----------------------------------------------------------      
     |                   =====================                   |     
     |                           x T B                           |     
     |                   =====================                   |     
     |                         S. Grimme                         |     
     |          Mulliken Center for Theoretical Chemistry        |     
     |                    University of Bonn                     |     
      -----------------------------------------------------------      

   * xtb version 6.7.1 (edcfbbe) compiled by 'conda@c0858423619e' on 2025-09-04

   xtb is free software: you can redistribute it and/or modify it under
   the terms of the GNU Lesser General Public License as published by
   the Free Software Foundation, either version 3 of the License, or
   (at your option) any later version.
   
   xtb is distributed in the hope that it will be useful,
   but WITHOUT ANY WARRANTY; without even the implied warranty of
   MERCHANTABILITY or FITNESS FOR A PARTICULAR PURPOSE.  See the
   GNU Lesser General Public License for more details.
   
   Cite this work as:
   * C. Bannwarth, E. Caldeweyher, S. Ehlert, A. Hansen, P. Pracht,
     J. Seibert, S. Spicher, S. Grimme, WIREs Comput. Mol. Sci., 2020, 11,
     e01493. DOI: 10.1002/wcms.1493
   
   for GFN2-xTB:
   * C. Bannwarth, S. Ehlert and S. Grimme., J. Chem. Theory Comput., 2019,
     15, 1652-1671. DOI: 10.1021/acs.jctc.8b01176
   for GFN1-xTB:
   * S. Grimme, C. Bannwarth, P. Shushkov, J. Chem. Theory Comput., 2017,
     13, 1989-2009. DOI: 10.1021/acs.jctc.7b00118
   for GFN0-xTB:
   * P. Pracht, E. Caldeweyher, S. Ehlert, S. Grimme, ChemRxiv, 2019, preprint.
     DOI: 10.26434/chemrxiv.8326202.v1
   for GFN-FF:
   * S. Spicher and S. Grimme, Angew. Chem. Int. Ed., 2020, 59, 15665-15673.
     DOI: 10.1002/anie.202004239
   
   for ALPB and GBSA implicit solvation:
   * S. Ehlert, M. Stahn, S. Spicher, S. Grimme, J. Chem. Theory Comput.,
     2021, 17, 4250-4261. DOI: 10.1021/acs.jctc.1c00471
   
   for ddCOSMO and CPCM-X implicit solvation:
   * M. Stahn, S. Ehlert, S. Grimme, J. Phys. Chem. A,
     2023, XX, XXXX-XXXX. DOI: 10.1021/acs.jpca.3c04382
   
   for DFT-D4:
   * E. Caldeweyher, C. Bannwarth and S. Grimme, J. Chem. Phys., 2017,
     147, 034112. DOI: 10.1063/1.4993215
   * E. Caldeweyher, S. Ehlert, A. Hansen, H. Neugebauer, S. Spicher,
     C. Bannwarth and S. Grimme, J. Chem. Phys., 2019, 150, 154122.
     DOI: 10.1063/1.5090222
   * E. Caldeweyher, J.-M. Mewes, S. Ehlert and S. Grimme, Phys. Chem. Chem. Phys.
     2020, 22, 8499-8512. DOI: 10.1039/D0CP00502A
   
   for sTDA-xTB:
   * S. Grimme and C. Bannwarth, J. Chem. Phys., 2016, 145, 054103.
     DOI: 10.1063/1.4959605
   
   in the mass-spec context:
   * V. Asgeirsson, C. Bauer and S. Grimme, Chem. Sci., 2017, 8, 4879.
     DOI: 10.1039/c7sc00601b
   * J. Koopman and S. Grimme, ACS Omega 2019, 4, 12, 15120-15133.
     DOI: 10.1021/acsomega.9b02011
   
   for metadynamics refer to:
   * S. Grimme, J. Chem. Theory Comput., 2019, 155, 2847-2862
     DOI: 10.1021/acs.jctc.9b00143
   
   for SPH calculations refer to:
   * S. Spicher and S. Grimme, J. Chem. Theory Comput., 2021, 17, 1701-1714
     DOI: 10.1021/acs.jctc.0c01306
   
   for ONIOM refer to:
   * C. Plett, A. Katbashev, S. Ehlert, S. Grimme, M. Bursch,
     Phys. Chem. Chem. Phys., 2023, 25, 17860-17868. DOI: 10.1039/D3CP02178E
   
   for DIPRO refer to:
   * J. Kohn, N. Gildemeister, S. Grimme, D. Fazzi, A. Hansen,
     J. Chem. Phys., 2023, just accepted.
   
   for PTB refer to:
   * S. Grimme, M. Mueller, A. Hansen, J. Chem. Phys., 2023, 158, 124111.
     DOI: 10.1063/5.0137838
   
   with help from (in alphabetical order)
   P. Atkinson, C. Bannwarth, F. Bohle, G. Brandenburg, E. Caldeweyher
   M. Checinski, S. Dohm, S. Ehlert, S. Ehrlich, I. Gerasimov, C. Hölzer
   A. Katbashev, J. Kohn, J. Koopman, C. Lavigne, S. Lehtola, F. März, M. Müller,
   F. Musil, H. Neugebauer, J. Pisarek, C. Plett, P. Pracht, F. Pultar,
   J. Seibert, P. Shushkov, S. Spicher, M. Stahn, M. Steiner, T. Strunk,
   J. Stückrath, T. Rose, and J. Unsleber
   
 * started run on 2026/01/05 at 09:07:18.214     
   ID    Z sym.   atoms
    1    7 N      1, 21, 33, 45, 50, 65, 86, 94, 97, 103, 122
    2    1 H      2, 4, 6, 7, 10, 12, 14, 16, 18, 22, 24, 26, 27, 34, 36, 38,
                  39, 41, 42, 46, 47, 51, 53, 55, 56, 58, 59, 66, 68, 70, 71,
                  74, 76, 79, 81, 83, 87, 89, 91, 92, 96, 98, 100, 104, 106,
                  108, 110-112, 114, 115, 117-119, 123, 125, 127, 129-131,
                  133, 134, 136-138, 141-150
    3    6 C      3, 5, 8, 9, 11, 13, 15, 17, 19, 23, 25, 28, 31, 35, 37, 40,
                  43, 48, 52, 54, 57, 60, 63, 67, 69, 72, 73, 75, 77, 80, 82,
                  84, 88, 90, 93, 95, 99, 101, 105, 107, 109, 113, 116, 120,
                  124, 126, 128, 132, 135, 139
    4    8 O      20, 29, 30, 32, 44, 49, 61, 62, 64, 78, 85, 102, 121, 140

           -------------------------------------------------
          |                Calculation Setup                |
           -------------------------------------------------

          program call               : xtb /home/antonio_mesquita/Documentos/gmx_ISA_project/testes_arquivos_primeiros/gmx_ISA_testes/testes_qm_xtb/QM_analysis/QM_FRAMES_CAPPED/frame_3400ps/residues_pocket_capped_3400ps.xyz --gfn 2 --alpb water --chrg -2 --etemp 1500 --cycles 1000
          coordinate file            : /home/antonio_mesquita/Documentos/gmx_ISA_project/testes_arquivos_primeiros/gmx_ISA_testes/testes_qm_xtb/QM_analysis/QM_FRAMES_CAPPED/frame_3400ps/residues_pocket_capped_3400ps.xyz
          omp threads                :                    16


molecular fragmentation (1/2 indicates fragments):
111111111111111111111111111111112222222222222222222222222222222222222222
222222222222222222222222222222222222222222222222222222222222222222221122
222222
# atoms in fragment 1/2:    34   116
 fragment masses (1/2) :      263.27      790.93
CMA distance (Bohr)    :  18.984
constraining FC (au)   :  0.0500

           -------------------------------------------------
          |                 G F N 2 - x T B                 |
           -------------------------------------------------

        Reference                      10.1021/acs.jctc.8b01176
      * Hamiltonian:
        H0-scaling (s, p, d)           1.850000    2.230000    2.230000
        zeta-weighting                 0.500000
      * Dispersion:
        s8                             2.700000
        a1                             0.520000
        a2                             5.000000
        s9                             5.000000
      * Repulsion:
        kExp                           1.500000    1.000000
        rExp                           1.000000
      * Coulomb:
        alpha                          2.000000
        third order                    shell-resolved
        anisotropic                    true
        a3                             3.000000
        a5                             4.000000
        cn-shift                       1.200000
        cn-exp                         4.000000
        max-rad                        5.000000

      * Solvation model:               ALPB
        Solvent                        water
        Parameter file                 internal GFN2-xTB/ALPB
        Dielectric constant                8.0200E+01
        Reference state                gsolv [1 M gas/solution]
        Free energy shift                  1.0808E-03 Eh       6.7819E-01 kcal/mol
        Temperature                        2.9815E+02 K
        Density                            1.0000E+00 kg/L
        Solvent mass                       1.8000E+01 g/mol
        Interaction kernel             P16
        Born radius scaling (c1)           1.4744E+00
        Born radii integrator          GBOBC
        Born offset                        0.0000E+00 a0       0.0000E+00 AA
        H-bond correction              true
        Ion screening                  false
        Surface tension                    1.0000E-05 Eh       1.5569E+01 dyn/cm
        Grid points                               230 per atom

          ...................................................
          :                      SETUP                      :
          :.................................................:
          :  # basis functions                 375          :
          :  # atomic orbitals                 375          :
          :  # shells                          225          :
          :  # electrons                       416          :
          :  max. iterations                   250          :
          :  Hamiltonian                  GFN2-xTB          :
          :  restarted?                      false          :
          :  GBSA solvation                   true          :
          :  PC potential                    false          :
          :  electronic temp.         1500.0000000     K    :
          :  accuracy                    1.0000000          :
          :  -> integral cutoff          0.2500000E+02      :
          :  -> integral neglect         0.1000000E-07      :
          :  -> SCF convergence          0.1000000E-05 Eh   :
          :  -> wf. convergence          0.1000000E-03 e    :
          :  Broyden damping             0.4000000          :
          :  net charge                         -2          :
          :  unpaired electrons                  0          :
          ...................................................

 iter      E             dE          RMSdq      gap      omega  full diag
   1   -237.0353523 -0.237035E+03  0.463E+00    1.51       0.0  T
   2   -237.5882279 -0.552876E+00  0.233E+00    0.75       1.0  T
   3   -237.6090219 -0.207940E-01  0.134E+00    1.71       1.0  T
   4   -237.6429333 -0.339115E-01  0.311E-01    1.04       1.0  T
   5   -237.6493227 -0.638938E-02  0.123E-01    1.12       1.0  T
   6   -237.6495889 -0.266164E-03  0.664E-02    1.08       1.0  T
   7   -237.6497057 -0.116787E-03  0.271E-02    1.09       1.0  T
   8   -237.6497344 -0.287699E-04  0.104E-02    1.08       1.0  T
   9   -237.6497370 -0.261111E-05  0.549E-03    1.08       1.5  T
  10   -237.6497380 -0.996282E-06  0.243E-03    1.08       3.4  T
  11   -237.6497382 -0.180860E-06  0.115E-03    1.08       7.1  T
  12   -237.6497383 -0.505972E-07  0.516E-04    1.08      15.8  T
  13   -237.6497383 -0.810891E-08  0.245E-04    1.08      33.4  T

   *** convergence criteria satisfied after 13 iterations ***

         #    Occupation            Energy/Eh            Energy/eV
      -------------------------------------------------------------
         1        2.0000           -0.7341635             -19.9776
       ...           ...                  ...                  ...
       202        1.9999           -0.3606523              -9.8138
       203        1.9998           -0.3592718              -9.7763
       204        1.9989           -0.3509364              -9.5495
       205        1.9962           -0.3452612              -9.3950
       206        1.9934           -0.3425646              -9.3217
       207        1.9795           -0.3371736              -9.1750
       208        1.9695           -0.3352541              -9.1227 (HOMO)
       209        0.0298           -0.2955533              -8.0424 (LUMO)
       210        0.0200           -0.2936329              -7.9902
       211        0.0080           -0.2892545              -7.8710
       212        0.0041           -0.2861116              -7.7855
       213        0.0010           -0.2794694              -7.6047
       ...           ...                  ...                  ...
       375                          0.6352254              17.2854
      -------------------------------------------------------------
                  HL-Gap            0.0397008 Eh            1.0803 eV
             Fermi-level           -0.3154608 Eh           -8.5841 eV

 SCC (total)                   0 d,  0 h,  0 min,  0.648 sec
 SCC setup                      ...        0 min,  0.006 sec (  0.923%)
 Dispersion                     ...        0 min,  0.010 sec (  1.537%)
 classical contributions        ...        0 min,  0.001 sec (  0.205%)
 integral evaluation            ...        0 min,  0.042 sec (  6.528%)
 iterations                     ...        0 min,  0.464 sec ( 71.610%)
 molecular gradient             ...        0 min,  0.120 sec ( 18.570%)
 printout                       ...        0 min,  0.004 sec (  0.622%)

         :::::::::::::::::::::::::::::::::::::::::::::::::::::
         ::                     SUMMARY                     ::
         :::::::::::::::::::::::::::::::::::::::::::::::::::::
         :: total energy            -234.836350832455 Eh    ::
         :: total w/o Gsasa/hb      -234.815082493175 Eh    ::
         :: gradient norm              0.257005599850 Eh/a0 ::
         :: HOMO-LUMO gap              1.080313945059 eV    ::
         ::.................................................::
         :: SCC energy              -237.643253021840 Eh    ::
         :: -> isotropic ES            0.988397844574 Eh    ::
         :: -> anisotropic ES          0.026086044500 Eh    ::
         :: -> anisotropic XC          0.090455871913 Eh    ::
         :: -> dispersion             -0.155787636566 Eh    ::
         :: -> Gsolv                  -0.361646767856 Eh    ::
         ::    -> Gelec               -0.340378428576 Eh    ::
         ::    -> Gsasa                0.014016970856 Eh    ::
         ::    -> Ghb                 -0.036366069834 Eh    ::
         ::    -> Gshift               0.001080759698 Eh    ::
         :: repulsion energy           2.806902189385 Eh    ::
         :: add. restraining           0.000000000000 Eh    ::
         :: total charge              -2.000000000000 e     ::
         :::::::::::::::::::::::::::::::::::::::::::::::::::::

           -------------------------------------------------
          |                Property Printout                |
           -------------------------------------------------

    * Orbital Energies and Occupations

         #    Occupation            Energy/Eh            Energy/eV
      -------------------------------------------------------------
         1        2.0000           -0.7341635             -19.9776
       ...           ...                  ...                  ...
       196        2.0000           -0.3869744             -10.5301
       197        2.0000           -0.3837811             -10.4432
       198        2.0000           -0.3753524             -10.2139
       199        2.0000           -0.3735496             -10.1648
       200        2.0000           -0.3714669             -10.1081
       201        1.9999           -0.3657814              -9.9534
       202        1.9999           -0.3606523              -9.8138
       203        1.9998           -0.3592718              -9.7763
       204        1.9989           -0.3509364              -9.5495
       205        1.9962           -0.3452612              -9.3950
       206        1.9934           -0.3425646              -9.3217
       207        1.9795           -0.3371736              -9.1750
       208        1.9695           -0.3352541              -9.1227 (HOMO)
       209        0.0298           -0.2955533              -8.0424 (LUMO)
       210        0.0200           -0.2936329              -7.9902
       211        0.0080           -0.2892545              -7.8710
       212        0.0041           -0.2861116              -7.7855
       213        0.0010           -0.2794694              -7.6047
       214                         -0.2241847              -6.1004
       215                         -0.2229193              -6.0659
       216                         -0.2222100              -6.0466
       217                         -0.2191467              -5.9633
       218                         -0.2144191              -5.8346
       219                         -0.2121344              -5.7725
       ...                                ...                  ...
       375                          0.6352254              17.2854
      -------------------------------------------------------------
                  HL-Gap            0.0397008 Eh            1.0803 eV
             Fermi-level           -0.3154608 Eh           -8.5841 eV

     #   Z          covCN         q      C6AA      α(0)
     1   7 N        2.630    -0.377    29.746     8.100
     2   1 H        0.860     0.158     1.350     1.820
     3   6 C        3.787     0.032    20.053     6.378
     4   1 H        0.924     0.064     2.148     2.292
     5   6 C        3.820    -0.075    21.913     6.662
     6   1 H        0.924     0.065     2.139     2.287
     7   1 H        0.925     0.046     2.364     2.404
     8   6 C        2.970     0.008    27.828     8.653
     9   6 C        2.907    -0.048    29.185     8.858
    10   1 H        0.926     0.062     2.175     2.306
    11   6 C        2.911    -0.040    28.991     8.829
    12   1 H        0.926     0.050     2.315     2.379
    13   6 C        2.910    -0.041    29.011     8.832
    14   1 H        0.926     0.030     2.580     2.512
    15   6 C        2.913    -0.033    28.831     8.805
    16   1 H        0.926     0.015     2.807     2.620
    17   6 C        2.911    -0.035    28.875     8.811
    18   1 H        0.926     0.018     2.766     2.601
    19   6 C        2.759     0.271    22.416     7.753
    20   8 O        0.859    -0.530    24.449     6.629
    21   7 N        2.690    -0.171    24.699     7.381
    22   1 H        0.860     0.214     1.038     1.596
    23   6 C        3.792     0.047    19.799     6.337
    24   1 H        0.925     0.080     1.977     2.199
    25   6 C        3.806    -0.080    22.014     6.679
    26   1 H        0.924     0.043     2.406     2.426
    27   1 H        0.925     0.057     2.230     2.335
    28   6 C        2.688     0.360    20.892     7.480
    29   8 O        0.860    -0.658    27.589     7.042
    30   8 O        0.861    -0.661    27.665     7.052
    31   6 C        2.760     0.209    23.575     7.951
    32   8 O        0.856    -0.374    21.168     6.169
    33   7 N        2.631    -0.371    29.592     8.079
    34   1 H        0.860     0.181     1.211     1.724
    35   6 C        3.795     0.026    20.143     6.391
    36   1 H        0.923     0.067     2.117     2.275
    37   6 C        3.804    -0.062    21.682     6.629
    38   1 H        0.925     0.060     2.200     2.319
    39   1 H        0.925     0.053     2.282     2.362
    40   6 C        3.809    -0.090    22.218     6.710
    41   1 H        0.924     0.060     2.199     2.319
    42   1 H        0.925     0.066     2.128     2.281
    43   6 C        2.743     0.286    22.156     7.707
    44   8 O        0.862    -0.542    24.722     6.666
    45   7 N        2.639    -0.302    27.781     7.828
    46   1 H        0.860     0.243     0.911     1.495
    47   1 H        0.860     0.251     0.881     1.470
    48   6 C        2.749     0.267    22.499     7.767
    49   8 O        0.859    -0.524    24.325     6.613
    50   7 N        2.708    -0.173    24.747     7.388
    51   1 H        0.860     0.222     1.002     1.568
    52   6 C        3.792     0.033    20.031     6.374
    53   1 H        0.925     0.090     1.874     2.141
    54   6 C        3.829    -0.057    21.574     6.609
    55   1 H        0.924     0.046     2.375     2.410
    56   1 H        0.925     0.062     2.178     2.308
    57   6 C        3.801    -0.092    22.259     6.717
    58   1 H        0.924     0.045     2.384     2.415
    59   1 H        0.924     0.035     2.521     2.483
    60   6 C        2.688     0.365    20.804     7.465
    61   8 O        0.858    -0.672    27.965     7.090
    62   8 O        0.858    -0.657    27.567     7.039
    63   6 C        2.761     0.202    23.704     7.973
    64   8 O        0.857    -0.381    21.299     6.188
    65   7 N        2.631    -0.377    29.731     8.098
    66   1 H        0.860     0.164     1.309     1.792
    67   6 C        3.786     0.043    19.871     6.349
    68   1 H        0.924     0.080     1.977     2.199
    69   6 C        3.813    -0.073    21.876     6.657
    70   1 H        0.925     0.075     2.033     2.230
    71   1 H        0.924     0.059     2.213     2.326
    72   6 C        2.961     0.009    27.804     8.649
    73   6 C        2.916    -0.044    29.095     8.845
    74   1 H        0.925     0.047     2.360     2.402
    75   6 C        2.907    -0.063    29.562     8.915
    76   1 H        0.926     0.044     2.402     2.424
    77   6 C        2.837     0.141    24.925     8.182
    78   8 O        1.659    -0.464    22.135     6.351
    79   1 H        0.805     0.355     0.576     1.192
    80   6 C        2.909    -0.072    29.803     8.952
    81   1 H        0.925     0.037     2.494     2.470
    82   6 C        2.911    -0.041    29.011     8.832
    83   1 H        0.925     0.054     2.270     2.356
    84   6 C        2.758     0.196    23.815     7.992
    85   8 O        0.857    -0.406    21.791     6.259
    86   7 N        2.633    -0.364    29.392     8.052
    87   1 H        0.860     0.173     1.256     1.756
    88   6 C        3.785     0.048    19.779     6.335
    89   1 H        0.925     0.049     2.328     2.386
    90   6 C        3.806    -0.072    21.872     6.658
    91   1 H        0.924     0.050     2.315     2.379
    92   1 H        0.925     0.060     2.197     2.318
    93   6 C        3.157     0.045    26.686     8.447
    94   7 N        1.895    -0.327    29.335     8.030
    95   6 C        3.027     0.081    26.170     8.391
    96   1 H        0.925     0.051     2.308     2.376
    97   7 N        2.833    -0.104    23.281     7.166
    98   1 H        0.860     0.222     1.001     1.567
    99   6 C        2.949    -0.034    28.841     8.808
   100   1 H        0.926     0.058     2.224     2.332
   101   6 C        2.759     0.211    23.533     7.944
   102   8 O        0.856    -0.370    21.091     6.157
   103   7 N        2.638    -0.366    29.449     8.060
   104   1 H        0.860     0.161     1.330     1.806
   105   6 C        3.788     0.032    20.056     6.378
   106   1 H        0.925     0.067     2.123     2.279
   107   6 C        3.860    -0.026    21.003     6.518
   108   1 H        0.924     0.047     2.360     2.402
   109   6 C        3.754    -0.107    22.595     6.778
   110   1 H        0.925     0.061     2.182     2.310
   111   1 H        0.924     0.019     2.749     2.593
   112   1 H        0.925     0.037     2.490     2.467
   113   6 C        3.806    -0.055    21.553     6.609
   114   1 H        0.924     0.013     2.847     2.639
   115   1 H        0.925     0.029     2.595     2.519
   116   6 C        3.749    -0.098    22.432     6.755
   117   1 H        0.925     0.027     2.630     2.536
   118   1 H        0.924     0.033     2.543     2.494
   119   1 H        0.924     0.033     2.548     2.496
   120   6 C        2.759     0.272    22.405     7.751
   121   8 O        0.861    -0.533    24.518     6.639
   122   7 N        2.693    -0.156    24.380     7.333
   123   1 H        0.860     0.232     0.956     1.531
   124   6 C        3.808     0.034    19.993     6.365
   125   1 H        0.925     0.073     2.052     2.240
   126   6 C        3.852    -0.018    20.867     6.497
   127   1 H        0.924     0.062     2.172     2.305
   128   6 C        3.755    -0.117    22.788     6.807
   129   1 H        0.924     0.040     2.447     2.446
   130   1 H        0.924     0.059     2.208     2.324
   131   1 H        0.925     0.043     2.415     2.430
   132   6 C        3.804    -0.051    21.490     6.600
   133   1 H        0.925     0.018     2.764     2.600
   134   1 H        0.925     0.033     2.549     2.497
   135   6 C        3.749    -0.103    22.527     6.769
   136   1 H        0.925     0.026     2.650     2.546
   137   1 H        0.924     0.046     2.372     2.409
   138   1 H        0.924     0.036     2.510     2.477
   139   6 C        2.765     0.201    23.730     7.978
   140   8 O        0.859    -0.357    20.843     6.121
   141   1 H        0.860     0.202     1.094     1.638
   142   1 H        0.923     0.063     2.159     2.298
   143   1 H        0.860     0.156     1.360     1.827
   144   1 H        0.923     0.091     1.873     2.140
   145   1 H        0.860     0.177     1.234     1.740
   146   1 H        0.923     0.066     2.133     2.284
   147   1 H        0.860     0.182     1.200     1.716
   148   1 H        0.923     0.066     2.129     2.282
   149   1 H        0.860     0.182     1.201     1.716
   150   1 H        0.923     0.083     1.953     2.186

 Mol. C6AA /au·bohr⁶  :     224621.974454
 Mol. C8AA /au·bohr⁸  :    5054134.036098
 Mol. α(0) /au        :        717.687937


Wiberg/Mayer (AO) data.
largest (>0.10) Wiberg bond orders for each atom

 ---------------------------------------------------------------------------
     #   Z sym  total        # sym  WBO       # sym  WBO       # sym  WBO
 ---------------------------------------------------------------------------
     1   7 N    3.010 --     3 C    1.031     2 H    0.945   141 H    0.942
     2   1 H    0.975 --     1 N    0.945
     3   6 C    3.984 --     1 N    1.031    19 C    0.952     4 H    0.948
                             5 C    0.942
     4   1 H    0.995 --     3 C    0.948
     5   6 C    3.989 --     8 C    1.010     7 H    0.967     6 H    0.963
                             3 C    0.942
     6   1 H    0.995 --     5 C    0.963
     7   1 H    0.998 --     5 C    0.967
     8   6 C    3.986 --    17 C    1.418     9 C    1.407     5 C    1.010
                            13 C    0.105
     9   6 C    3.985 --    11 C    1.443     8 C    1.407    10 H    0.966
                            15 C    0.112
    10   1 H    0.996 --     9 C    0.966
    11   6 C    3.988 --     9 C    1.443    13 C    1.432    12 H    0.970
                            17 C    0.114
    12   1 H    0.997 --    11 C    0.970
    13   6 C    3.988 --    15 C    1.444    11 C    1.432    14 H    0.972
                             8 C    0.105
    14   1 H    0.999 --    13 C    0.972
    15   6 C    3.991 --    13 C    1.444    17 C    1.433    16 H    0.972
                             9 C    0.112
    16   1 H    0.999 --    15 C    0.972
    17   6 C    3.991 --    15 C    1.433     8 C    1.418    18 H    0.969
                            11 C    0.114
    18   1 H    1.000 --    17 C    0.969
    19   6 C    3.935 --    20 O    1.611    21 N    1.289     3 C    0.952
    20   8 O    1.914 --    19 C    1.611    21 N    0.184
    21   7 N    3.456 --    19 C    1.289    23 C    0.979    22 H    0.906
                            20 O    0.184
    22   1 H    0.954 --    21 N    0.906
    23   6 C    3.973 --    31 C    0.988    21 N    0.979    25 C    0.954
                            24 H    0.952
    24   1 H    0.993 --    23 C    0.952
    25   6 C    3.987 --    26 H    0.973    23 C    0.954    27 H    0.952
                            28 C    0.939
    26   1 H    0.998 --    25 C    0.973
    27   1 H    0.996 --    25 C    0.952
    28   6 C    3.936 --    30 O    1.487    29 O    1.485    25 C    0.939
    29   8 O    1.769 --    28 C    1.485    30 O    0.212
    30   8 O    1.768 --    28 C    1.487    29 O    0.212
    31   6 C    3.862 --    32 O    1.875    23 C    0.988   142 H    0.942
    32   8 O    2.018 --    31 C    1.875
    33   7 N    3.021 --    35 C    1.018   143 H    0.960    34 H    0.956
    34   1 H    0.967 --    33 N    0.956
    35   6 C    3.981 --    33 N    1.018    37 C    0.978    48 C    0.946
                            36 H    0.941
    36   1 H    0.995 --    35 C    0.941
    37   6 C    3.993 --    40 C    1.003    35 C    0.978    38 H    0.974
                            39 H    0.972
    38   1 H    0.996 --    37 C    0.974
    39   1 H    0.997 --    37 C    0.972
    40   6 C    3.993 --    37 C    1.003    42 H    0.971    43 C    0.967
                            41 H    0.950
    41   1 H    0.996 --    40 C    0.950
    42   1 H    0.996 --    40 C    0.971
    43   6 C    3.939 --    44 O    1.619    45 N    1.322    40 C    0.967
    44   8 O    1.913 --    43 C    1.619    45 N    0.193
    45   7 N    3.386 --    43 C    1.322    46 H    0.920    47 H    0.914
                            44 O    0.193
    46   1 H    0.941 --    45 N    0.920
    47   1 H    0.937 --    45 N    0.914
    48   6 C    3.937 --    49 O    1.621    50 N    1.294    35 C    0.946
    49   8 O    1.925 --    48 C    1.621    50 N    0.192
    50   7 N    3.464 --    48 C    1.294    52 C    0.981    51 H    0.914
                            49 O    0.192
    51   1 H    0.951 --    50 N    0.914
    52   6 C    3.967 --    63 C    0.982    50 N    0.981    54 C    0.957
                            53 H    0.945
    53   1 H    0.992 --    52 C    0.945
    54   6 C    3.988 --    57 C    1.006    56 H    0.972    55 H    0.970
                            52 C    0.957
    55   1 H    0.997 --    54 C    0.970
    56   1 H    0.996 --    54 C    0.972
    57   6 C    3.992 --    54 C    1.006    59 H    0.964    58 H    0.964
                            60 C    0.939
    58   1 H    0.998 --    57 C    0.964
    59   1 H    0.999 --    57 C    0.964
    60   6 C    3.931 --    62 O    1.495    61 O    1.475    57 C    0.939
    61   8 O    1.755 --    60 C    1.475    62 O    0.211
    62   8 O    1.781 --    60 C    1.495    61 O    0.211
    63   6 C    3.863 --    64 O    1.877    52 C    0.982   144 H    0.934
    64   8 O    2.023 --    63 C    1.877
    65   7 N    3.018 --    67 C    1.031    66 H    0.955   145 H    0.953
    66   1 H    0.973 --    65 N    0.955
    67   6 C    3.984 --    65 N    1.031    84 C    0.986    69 C    0.944
                            68 H    0.926
    68   1 H    0.993 --    67 C    0.926
    69   6 C    3.988 --    72 C    1.011    71 H    0.971    70 H    0.963
                            67 C    0.944
    70   1 H    0.994 --    69 C    0.963
    71   1 H    0.996 --    69 C    0.971
    72   6 C    3.987 --    73 C    1.412    82 C    1.396    69 C    1.011
    73   6 C    3.988 --    75 C    1.450    72 C    1.412    74 H    0.968
                            80 C    0.103
    74   1 H    0.998 --    73 C    0.968
    75   6 C    3.987 --    73 C    1.450    77 C    1.368    76 H    0.970
                            82 C    0.109
    76   1 H    0.998 --    75 C    0.970
    77   6 C    3.926 --    75 C    1.368    80 C    1.365    78 O    1.060
    78   8 O    2.064 --    77 C    1.060    79 H    0.852
    79   1 H    0.874 --    78 O    0.852
    80   6 C    3.985 --    82 C    1.456    77 C    1.365    81 H    0.968
                            73 C    0.103
    81   1 H    0.998 --    80 C    0.968
    82   6 C    3.986 --    80 C    1.456    72 C    1.396    83 H    0.964
                            75 C    0.109
    83   1 H    0.997 --    82 C    0.964
    84   6 C    3.875 --    85 O    1.864    67 C    0.986   146 H    0.937
    85   8 O    2.017 --    84 C    1.864
    86   7 N    3.008 --    88 C    1.020   147 H    0.951    87 H    0.940
    87   1 H    0.970 --    86 N    0.940
    88   6 C    3.987 --    86 N    1.020   101 C    0.988    89 H    0.960
                            90 C    0.933
    89   1 H    0.996 --    88 C    0.960
    90   6 C    3.983 --    93 C    1.013    91 H    0.965    92 H    0.963
                            88 C    0.933
    91   1 H    0.997 --    90 C    0.965
    92   1 H    0.996 --    90 C    0.963
    93   6 C    3.972 --    99 C    1.566    94 N    1.267    90 C    1.013
    94   7 N    2.997 --    95 C    1.526    93 C    1.267    97 N    0.106
    95   6 C    3.959 --    94 N    1.526    97 N    1.293    96 H    0.964
                            99 C    0.119
    96   1 H    0.997 --    95 C    0.964
    97   7 N    3.588 --    95 C    1.293    99 C    1.199    98 H    0.922
                            94 N    0.106
    98   1 H    0.951 --    97 N    0.922
    99   6 C    3.938 --    93 C    1.566    97 N    1.199   100 H    0.968
                            95 C    0.119
   100   1 H    0.997 --    99 C    0.968
   101   6 C    3.874 --   102 O    1.880    88 C    0.988   148 H    0.940
   102   8 O    2.059 --   101 C    1.880
   103   7 N    2.997 --   105 C    1.018   104 H    0.952   149 H    0.951
   104   1 H    0.974 --   103 N    0.952
   105   6 C    3.981 --   103 N    1.018   107 C    0.957   120 C    0.951
                           106 H    0.949
   106   1 H    0.994 --   105 C    0.949
   107   6 C    3.986 --   109 C    1.006   113 C    0.990   108 H    0.963
                           105 C    0.957
   108   1 H    0.997 --   107 C    0.963
Note: The following floating-point exceptions are signalling: IEEE_UNDERFLOW_FLAG IEEE_DENORMAL
normal termination of xtb
   109   6 C    3.991 --   107 C    1.006   111 H    0.985   112 H    0.984
                           110 H    0.979
   110   1 H    0.996 --   109 C    0.979
   111   1 H    1.000 --   109 C    0.985
   112   1 H    0.998 --   109 C    0.984
   113   6 C    3.994 --   116 C    1.017   107 C    0.990   115 H    0.977
                           114 H    0.977
   114   1 H    1.000 --   113 C    0.977
   115   1 H    0.999 --   113 C    0.977
   116   6 C    3.994 --   113 C    1.017   119 H    0.986   117 H    0.984
                           118 H    0.983
   117   1 H    0.999 --   116 C    0.984
   118   1 H    0.999 --   116 C    0.983
   119   1 H    0.999 --   116 C    0.986
   120   6 C    3.941 --   121 O    1.598   122 N    1.311   105 C    0.951
   121   8 O    1.905 --   120 C    1.598   122 N    0.186
   122   7 N    3.481 --   120 C    1.311   124 C    0.969   123 H    0.892
                           121 O    0.186
   123   1 H    0.946 --   122 N    0.892
   124   6 C    3.963 --   139 C    0.970   122 N    0.969   126 C    0.964
                           125 H    0.955
   125   1 H    0.994 --   124 C    0.955
   126   6 C    3.989 --   128 C    1.006   132 C    0.994   124 C    0.964
                           127 H    0.959
   127   1 H    0.996 --   126 C    0.959
   128   6 C    3.993 --   126 C    1.006   129 H    0.986   131 H    0.985
                           130 H    0.981
   129   1 H    0.998 --   128 C    0.986
   130   1 H    0.996 --   128 C    0.981
   131   1 H    0.998 --   128 C    0.985
   132   6 C    3.995 --   135 C    1.011   126 C    0.994   134 H    0.976
                           133 H    0.975
   133   1 H    1.000 --   132 C    0.975
   134   1 H    0.999 --   132 C    0.976
   135   6 C    3.993 --   132 C    1.011   138 H    0.989   136 H    0.988
                           137 H    0.983
   136   1 H    0.999 --   135 C    0.988
   137   1 H    0.998 --   135 C    0.983
   138   1 H    0.999 --   135 C    0.989
   139   6 C    3.875 --   140 O    1.897   124 C    0.970   150 H    0.936
   140   8 O    2.054 --   139 C    1.897
   141   1 H    0.959 --     1 N    0.942
   142   1 H    0.995 --    31 C    0.942
   143   1 H    0.976 --    33 N    0.960
   144   1 H    0.992 --    63 C    0.934
   145   1 H    0.969 --    65 N    0.953
   146   1 H    0.995 --    84 C    0.937
   147   1 H    0.967 --    86 N    0.951
   148   1 H    0.995 --   101 C    0.940
   149   1 H    0.966 --   103 N    0.951
   150   1 H    0.993 --   139 C    0.936
 ---------------------------------------------------------------------------

Topologies differ in total number of bonds
Writing topology from bond orders to xtbtopo.mol

molecular dipole:
                 x           y           z       tot (Debye)
 q only:      -71.536     -21.688    -209.268
   full:      -71.480     -21.465    -208.890     563.815
molecular quadrupole (traceless):
                xx          xy          yy          xz          yz          zz
 q only:     8408.268   -1226.120   12252.360  -11452.410   -3560.414  -20660.629
  q+dip:     8358.556   -1206.963   12240.434  -11410.778   -3526.314  -20598.991
   full:     8360.533   -1206.215   12240.951  -11412.367   -3522.686  -20601.483


           -------------------------------------------------
          | TOTAL ENERGY             -234.836350832455 Eh   |
          | GRADIENT NORM               0.257005599850 Eh/α |
          | HOMO-LUMO GAP               1.080313945059 eV   |
           -------------------------------------------------

------------------------------------------------------------------------
 * finished run on 2026/01/05 at 09:07:18.908     
------------------------------------------------------------------------
 total:
 * wall-time:     0 d,  0 h,  0 min,  0.694 sec
 *  cpu-time:     0 d,  0 h,  0 min, 10.112 sec
 * ratio c/w:    14.575 speedup
 SCF:
 * wall-time:     0 d,  0 h,  0 min,  0.650 sec
 *  cpu-time:     0 d,  0 h,  0 min,  9.480 sec
 * ratio c/w:    14.587 speedup

