      -----------------------------------------------------------      
     |                   =====================                   |     
     |                           x T B                           |     
     |                   =====================                   |     
     |                         S. Grimme                         |     
     |          Mulliken Center for Theoretical Chemistry        |     
     |                    University of Bonn                     |     
      -----------------------------------------------------------      

   * xtb version 6.7.1 (edcfbbe) compiled by 'conda@c0858423619e' on 2025-09-04

   xtb is free software: you can redistribute it and/or modify it under
   the terms of the GNU Lesser General Public License as published by
   the Free Software Foundation, either version 3 of the License, or
   (at your option) any later version.
   
   xtb is distributed in the hope that it will be useful,
   but WITHOUT ANY WARRANTY; without even the implied warranty of
   MERCHANTABILITY or FITNESS FOR A PARTICULAR PURPOSE.  See the
   GNU Lesser General Public License for more details.
   
   Cite this work as:
   * C. Bannwarth, E. Caldeweyher, S. Ehlert, A. Hansen, P. Pracht,
     J. Seibert, S. Spicher, S. Grimme, WIREs Comput. Mol. Sci., 2020, 11,
     e01493. DOI: 10.1002/wcms.1493
   
   for GFN2-xTB:
   * C. Bannwarth, S. Ehlert and S. Grimme., J. Chem. Theory Comput., 2019,
     15, 1652-1671. DOI: 10.1021/acs.jctc.8b01176
   for GFN1-xTB:
   * S. Grimme, C. Bannwarth, P. Shushkov, J. Chem. Theory Comput., 2017,
     13, 1989-2009. DOI: 10.1021/acs.jctc.7b00118
   for GFN0-xTB:
   * P. Pracht, E. Caldeweyher, S. Ehlert, S. Grimme, ChemRxiv, 2019, preprint.
     DOI: 10.26434/chemrxiv.8326202.v1
   for GFN-FF:
   * S. Spicher and S. Grimme, Angew. Chem. Int. Ed., 2020, 59, 15665-15673.
     DOI: 10.1002/anie.202004239
   
   for ALPB and GBSA implicit solvation:
   * S. Ehlert, M. Stahn, S. Spicher, S. Grimme, J. Chem. Theory Comput.,
     2021, 17, 4250-4261. DOI: 10.1021/acs.jctc.1c00471
   
   for ddCOSMO and CPCM-X implicit solvation:
   * M. Stahn, S. Ehlert, S. Grimme, J. Phys. Chem. A,
     2023, XX, XXXX-XXXX. DOI: 10.1021/acs.jpca.3c04382
   
   for DFT-D4:
   * E. Caldeweyher, C. Bannwarth and S. Grimme, J. Chem. Phys., 2017,
     147, 034112. DOI: 10.1063/1.4993215
   * E. Caldeweyher, S. Ehlert, A. Hansen, H. Neugebauer, S. Spicher,
     C. Bannwarth and S. Grimme, J. Chem. Phys., 2019, 150, 154122.
     DOI: 10.1063/1.5090222
   * E. Caldeweyher, J.-M. Mewes, S. Ehlert and S. Grimme, Phys. Chem. Chem. Phys.
     2020, 22, 8499-8512. DOI: 10.1039/D0CP00502A
   
   for sTDA-xTB:
   * S. Grimme and C. Bannwarth, J. Chem. Phys., 2016, 145, 054103.
     DOI: 10.1063/1.4959605
   
   in the mass-spec context:
   * V. Asgeirsson, C. Bauer and S. Grimme, Chem. Sci., 2017, 8, 4879.
     DOI: 10.1039/c7sc00601b
   * J. Koopman and S. Grimme, ACS Omega 2019, 4, 12, 15120-15133.
     DOI: 10.1021/acsomega.9b02011
   
   for metadynamics refer to:
   * S. Grimme, J. Chem. Theory Comput., 2019, 155, 2847-2862
     DOI: 10.1021/acs.jctc.9b00143
   
   for SPH calculations refer to:
   * S. Spicher and S. Grimme, J. Chem. Theory Comput., 2021, 17, 1701-1714
     DOI: 10.1021/acs.jctc.0c01306
   
   for ONIOM refer to:
   * C. Plett, A. Katbashev, S. Ehlert, S. Grimme, M. Bursch,
     Phys. Chem. Chem. Phys., 2023, 25, 17860-17868. DOI: 10.1039/D3CP02178E
   
   for DIPRO refer to:
   * J. Kohn, N. Gildemeister, S. Grimme, D. Fazzi, A. Hansen,
     J. Chem. Phys., 2023, just accepted.
   
   for PTB refer to:
   * S. Grimme, M. Mueller, A. Hansen, J. Chem. Phys., 2023, 158, 124111.
     DOI: 10.1063/5.0137838
   
   with help from (in alphabetical order)
   P. Atkinson, C. Bannwarth, F. Bohle, G. Brandenburg, E. Caldeweyher
   M. Checinski, S. Dohm, S. Ehlert, S. Ehrlich, I. Gerasimov, C. Hölzer
   A. Katbashev, J. Kohn, J. Koopman, C. Lavigne, S. Lehtola, F. März, M. Müller,
   F. Musil, H. Neugebauer, J. Pisarek, C. Plett, P. Pracht, F. Pultar,
   J. Seibert, P. Shushkov, S. Spicher, M. Stahn, M. Steiner, T. Strunk,
   J. Stückrath, T. Rose, and J. Unsleber
   
 * started run on 2026/01/05 at 09:07:39.644     
   ID    Z sym.   atoms
    1    7 N      1, 21, 33, 54, 62, 65, 71, 90
    2    1 H      2, 4, 6, 7, 10, 12, 14, 16, 18, 22, 24, 26, 27, 34, 36, 38,
                  39, 42, 44, 47, 49, 51, 55, 57, 59, 60, 64, 66, 68, 72, 74,
                  76, 78-80, 82, 83, 85-87, 91, 93, 95, 97-99, 101, 102,
                  104-106, 109-116
    3    6 C      3, 5, 8, 9, 11, 13, 15, 17, 19, 23, 25, 28, 31, 35, 37, 40,
                  41, 43, 45, 48, 50, 52, 56, 58, 61, 63, 67, 69, 73, 75, 77,
                  81, 84, 88, 92, 94, 96, 100, 103, 107
    4    8 O      20, 29, 30, 32, 46, 53, 70, 89, 108

           -------------------------------------------------
          |                Calculation Setup                |
           -------------------------------------------------

          program call               : xtb /home/antonio_mesquita/Documentos/gmx_ISA_project/testes_arquivos_primeiros/gmx_ISA_testes/testes_qm_xtb/QM_analysis/QM_FRAMES_CAPPED/frame_4400ps/residues_pocket_capped_4400ps.xyz --gfn 2 --alpb water --chrg -1 --etemp 1500 --cycles 1000
          coordinate file            : /home/antonio_mesquita/Documentos/gmx_ISA_project/testes_arquivos_primeiros/gmx_ISA_testes/testes_qm_xtb/QM_analysis/QM_FRAMES_CAPPED/frame_4400ps/residues_pocket_capped_4400ps.xyz
          omp threads                :                    16


molecular fragmentation (1/2 indicates fragments):
111111111111111111111111111111112222222222222222222222222222222222222222
22222222222222222222222222222222222211222222
# atoms in fragment 1/2:    34    82
 fragment masses (1/2) :      263.27      532.68
CMA distance (Bohr)    :  14.719
constraining FC (au)   :  0.0500

           -------------------------------------------------
          |                 G F N 2 - x T B                 |
           -------------------------------------------------

        Reference                      10.1021/acs.jctc.8b01176
      * Hamiltonian:
        H0-scaling (s, p, d)           1.850000    2.230000    2.230000
        zeta-weighting                 0.500000
      * Dispersion:
        s8                             2.700000
        a1                             0.520000
        a2                             5.000000
        s9                             5.000000
      * Repulsion:
        kExp                           1.500000    1.000000
        rExp                           1.000000
      * Coulomb:
        alpha                          2.000000
        third order                    shell-resolved
        anisotropic                    true
        a3                             3.000000
        a5                             4.000000
        cn-shift                       1.200000
        cn-exp                         4.000000
        max-rad                        5.000000

      * Solvation model:               ALPB
        Solvent                        water
        Parameter file                 internal GFN2-xTB/ALPB
        Dielectric constant                8.0200E+01
        Reference state                gsolv [1 M gas/solution]
        Free energy shift                  1.0808E-03 Eh       6.7819E-01 kcal/mol
        Temperature                        2.9815E+02 K
        Density                            1.0000E+00 kg/L
        Solvent mass                       1.8000E+01 g/mol
        Interaction kernel             P16
        Born radius scaling (c1)           1.4744E+00
        Born radii integrator          GBOBC
        Born offset                        0.0000E+00 a0       0.0000E+00 AA
        H-bond correction              true
        Ion screening                  false
        Surface tension                    1.0000E-05 Eh       1.5569E+01 dyn/cm
        Grid points                               230 per atom

          ...................................................
          :                      SETUP                      :
          :.................................................:
          :  # basis functions                 287          :
          :  # atomic orbitals                 287          :
          :  # shells                          173          :
          :  # electrons                       314          :
          :  max. iterations                   250          :
          :  Hamiltonian                  GFN2-xTB          :
          :  restarted?                      false          :
          :  GBSA solvation                   true          :
          :  PC potential                    false          :
          :  electronic temp.         1500.0000000     K    :
          :  accuracy                    1.0000000          :
          :  -> integral cutoff          0.2500000E+02      :
          :  -> integral neglect         0.1000000E-07      :
          :  -> SCF convergence          0.1000000E-05 Eh   :
          :  -> wf. convergence          0.1000000E-03 e    :
          :  Broyden damping             0.4000000          :
          :  net charge                         -1          :
          :  unpaired electrons                  0          :
          ...................................................

 iter      E             dE          RMSdq      gap      omega  full diag
   1   -177.7173500 -0.177717E+03  0.432E+00    1.74       0.0  T
   2   -178.0729722 -0.355622E+00  0.222E+00    1.00       1.0  T
   3   -178.0859959 -0.130236E-01  0.124E+00    1.67       1.0  T
   4   -178.1062547 -0.202588E-01  0.278E-01    1.20       1.0  T
   5   -178.1107575 -0.450280E-02  0.111E-01    1.28       1.0  T
   6   -178.1109754 -0.217931E-03  0.615E-02    1.26       1.0  T
   7   -178.1110754 -0.100046E-03  0.235E-02    1.24       1.0  T
   8   -178.1110864 -0.109415E-04  0.926E-03    1.25       1.0  T
   9   -178.1110880 -0.166847E-05  0.486E-03    1.25       1.9  T
  10   -178.1110886 -0.567701E-06  0.223E-03    1.25       4.2  T
  11   -178.1110887 -0.112928E-06  0.108E-03    1.25       8.6  T
  12   -178.1110888 -0.337750E-07  0.490E-04    1.25      18.9  T
  13   -178.1110888 -0.612766E-08  0.244E-04    1.25      38.1  T

   *** convergence criteria satisfied after 13 iterations ***

         #    Occupation            Energy/Eh            Energy/eV
      -------------------------------------------------------------
         1        2.0000           -0.7368458             -20.0506
       ...           ...                  ...                  ...
       151        2.0000           -0.3694065             -10.0521
       152        2.0000           -0.3683917             -10.0244
       153        2.0000           -0.3663358              -9.9685
       154        1.9995           -0.3555000              -9.6736
       155        1.9980           -0.3486386              -9.4869
       156        1.9888           -0.3403293              -9.2608
       157        1.9840           -0.3386429              -9.2149 (HOMO)
       158        0.0161           -0.2928580              -7.9691 (LUMO)
       159        0.0113           -0.2911943              -7.9238
       160        0.0019           -0.2827887              -7.6951
       161        0.0004           -0.2752299              -7.4894
       162                         -0.2263849              -6.1602
       ...                                ...                  ...
       287                          0.6347310              17.2719
      -------------------------------------------------------------
                  HL-Gap            0.0457848 Eh            1.2459 eV
             Fermi-level           -0.3157374 Eh           -8.5917 eV

 SCC (total)                   0 d,  0 h,  0 min,  0.469 sec
 SCC setup                      ...        0 min,  0.004 sec (  0.750%)
 Dispersion                     ...        0 min,  0.004 sec (  0.896%)
 classical contributions        ...        0 min,  0.001 sec (  0.121%)
 integral evaluation            ...        0 min,  0.022 sec (  4.629%)
 iterations                     ...        0 min,  0.335 sec ( 71.413%)
 molecular gradient             ...        0 min,  0.103 sec ( 22.003%)
 printout                       ...        0 min,  0.001 sec (  0.181%)

         :::::::::::::::::::::::::::::::::::::::::::::::::::::
         ::                     SUMMARY                     ::
         :::::::::::::::::::::::::::::::::::::::::::::::::::::
         :: total energy            -175.895688726193 Eh    ::
         :: total w/o Gsasa/hb      -175.880568845028 Eh    ::
         :: gradient norm              0.190465314992 Eh/a0 ::
         :: HOMO-LUMO gap              1.245869118399 eV    ::
         ::.................................................::
         :: SCC energy              -178.103374581425 Eh    ::
         :: -> isotropic ES            0.539040823419 Eh    ::
         :: -> anisotropic ES          0.020909601677 Eh    ::
         :: -> anisotropic XC          0.078451197756 Eh    ::
         :: -> dispersion             -0.133937908985 Eh    ::
         :: -> Gsolv                  -0.165298455745 Eh    ::
         ::    -> Gelec               -0.150178574580 Eh    ::
         ::    -> Gsasa                0.006096684813 Eh    ::
         ::    -> Ghb                 -0.022297325676 Eh    ::
         ::    -> Gshift               0.001080759698 Eh    ::
         :: repulsion energy           2.207685855232 Eh    ::
         :: add. restraining           0.000000000000 Eh    ::
         :: total charge              -0.999999999618 e     ::
         :::::::::::::::::::::::::::::::::::::::::::::::::::::

           -------------------------------------------------
          |                Property Printout                |
           -------------------------------------------------

    * Orbital Energies and Occupations

         #    Occupation            Energy/Eh            Energy/eV
      -------------------------------------------------------------
         1        2.0000           -0.7368458             -20.0506
       ...           ...                  ...                  ...
       145        2.0000           -0.3945261             -10.7356
       146        2.0000           -0.3933670             -10.7041
       147        2.0000           -0.3900448             -10.6137
       148        2.0000           -0.3878964             -10.5552
       149        2.0000           -0.3834820             -10.4351
       150        2.0000           -0.3735791             -10.1656
       151        2.0000           -0.3694065             -10.0521
       152        2.0000           -0.3683917             -10.0244
       153        2.0000           -0.3663358              -9.9685
       154        1.9995           -0.3555000              -9.6736
       155        1.9980           -0.3486386              -9.4869
       156        1.9888           -0.3403293              -9.2608
       157        1.9840           -0.3386429              -9.2149 (HOMO)
       158        0.0161           -0.2928580              -7.9691 (LUMO)
       159        0.0113           -0.2911943              -7.9238
       160        0.0019           -0.2827887              -7.6951
       161        0.0004           -0.2752299              -7.4894
       162                         -0.2263849              -6.1602
       163                         -0.2230537              -6.0696
       164                         -0.2173338              -5.9140
       165                         -0.2125806              -5.7846
       166                         -0.2108516              -5.7376
       167                         -0.2036600              -5.5419
       168                         -0.2011015              -5.4723
       ...                                ...                  ...
       287                          0.6347310              17.2719
      -------------------------------------------------------------
                  HL-Gap            0.0457848 Eh            1.2459 eV
             Fermi-level           -0.3157374 Eh           -8.5917 eV

     #   Z          covCN         q      C6AA      α(0)
     1   7 N        2.632    -0.375    29.698     8.094
     2   1 H        0.860     0.156     1.364     1.830
     3   6 C        3.789     0.036    19.982     6.366
     4   1 H        0.924     0.064     2.153     2.295
     5   6 C        3.810    -0.063    21.705     6.632
     6   1 H        0.924     0.066     2.131     2.283
     7   1 H        0.924     0.041     2.438     2.442
     8   6 C        2.959     0.010    27.788     8.646
     9   6 C        2.922    -0.045    29.107     8.847
    10   1 H        0.926     0.047     2.359     2.402
    11   6 C        2.905    -0.040    28.993     8.829
    12   1 H        0.925     0.051     2.303     2.373
    13   6 C        2.915    -0.037    28.914     8.818
    14   1 H        0.925     0.040     2.444     2.445
    15   6 C        2.907    -0.031    28.771     8.795
    16   1 H        0.926     0.023     2.692     2.566
    17   6 C        2.917    -0.035    28.871     8.811
    18   1 H        0.926     0.009     2.903     2.665
    19   6 C        2.747     0.268    22.470     7.762
    20   8 O        0.859    -0.531    24.475     6.633
    21   7 N        2.693    -0.171    24.693     7.380
    22   1 H        0.860     0.213     1.044     1.601
    23   6 C        3.787     0.044    19.849     6.346
    24   1 H        0.924     0.069     2.098     2.265
    25   6 C        3.810    -0.081    22.043     6.683
    26   1 H        0.924     0.046     2.369     2.407
    27   1 H        0.925     0.064     2.152     2.294
    28   6 C        2.688     0.362    20.853     7.473
    29   8 O        0.857    -0.661    27.663     7.052
    30   8 O        0.857    -0.648    27.330     7.009
    31   6 C        2.757     0.209    23.573     7.951
    32   8 O        0.856    -0.365    20.994     6.143
    33   7 N        2.636    -0.371    29.588     8.079
    34   1 H        0.860     0.167     1.288     1.778
    35   6 C        3.784     0.036    19.982     6.367
    36   1 H        0.924     0.083     1.943     2.180
    37   6 C        3.817    -0.073    21.877     6.657
    38   1 H        0.924     0.063     2.161     2.299
    39   1 H        0.924     0.058     2.225     2.332
    40   6 C        2.963    -0.002    28.076     8.691
    41   6 C        2.914    -0.044    29.099     8.846
    42   1 H        0.926     0.051     2.312     2.378
    43   6 C        2.905    -0.059    29.459     8.900
    44   1 H        0.926     0.054     2.271     2.356
    45   6 C        2.838     0.143    24.886     8.175
    46   8 O        1.660    -0.468    22.209     6.362
    47   1 H        0.806     0.364     0.557     1.172
    48   6 C        2.908    -0.076    29.908     8.967
    49   1 H        0.925     0.039     2.459     2.452
    50   6 C        2.911    -0.047    29.173     8.857
    51   1 H        0.926     0.048     2.345     2.394
    52   6 C        2.758     0.202    23.708     7.973
    53   8 O        0.856    -0.390    21.480     6.214
    54   7 N        2.636    -0.331    28.513     7.930
    55   1 H        0.860     0.182     1.203     1.718
    56   6 C        3.792     0.043    19.863     6.347
    57   1 H        0.924     0.056     2.248     2.345
    58   6 C        3.810    -0.070    21.830     6.651
    59   1 H        0.924     0.045     2.382     2.414
    60   1 H        0.925     0.064     2.157     2.297
    61   6 C        3.072     0.044    26.930     8.509
    62   7 N        1.943    -0.317    29.055     7.993
    63   6 C        3.021     0.079    26.216     8.399
    64   1 H        0.925     0.058     2.222     2.331
    65   7 N        2.796    -0.102    23.244     7.160
    66   1 H        0.860     0.222     1.000     1.566
    67   6 C        3.032    -0.030    28.723     8.791
    68   1 H        0.926     0.029     2.606     2.524
    69   6 C        2.769     0.194    23.851     7.998
    70   8 O        0.858    -0.393    21.546     6.223
    71   7 N        2.632    -0.378    29.776     8.104
    72   1 H        0.860     0.160     1.334     1.809
    73   6 C        3.790     0.024    20.180     6.398
    74   1 H        0.925     0.048     2.348     2.396
    75   6 C        3.856    -0.032    21.115     6.535
    76   1 H        0.924     0.041     2.434     2.440
    77   6 C        3.751    -0.110    22.670     6.790
    78   1 H        0.924     0.027     2.631     2.537
    79   1 H        0.925     0.047     2.363     2.404
    80   1 H        0.925     0.051     2.306     2.374
    81   6 C        3.803    -0.053    21.529     6.606
    82   1 H        0.924     0.016     2.797     2.615
    83   1 H        0.925     0.036     2.499     2.472
    84   6 C        3.748    -0.105    22.566     6.775
    85   1 H        0.924     0.047     2.362     2.403
    86   1 H        0.925     0.035     2.513     2.479
    87   1 H        0.924     0.037     2.483     2.464
    88   6 C        2.756     0.268    22.479     7.764
    89   8 O        0.860    -0.530    24.468     6.632
    90   7 N        2.691    -0.166    24.584     7.364
    91   1 H        0.860     0.237     0.936     1.516
    92   6 C        3.800     0.031    20.057     6.377
    93   1 H        0.924     0.076     2.024     2.225
    94   6 C        3.857    -0.025    20.988     6.516
    95   1 H        0.925     0.067     2.117     2.275
    96   6 C        3.761    -0.122    22.891     6.820
    97   1 H        0.925     0.055     2.262     2.352
    98   1 H        0.924     0.063     2.168     2.303
    99   1 H        0.925     0.038     2.477     2.461
   100   6 C        3.810    -0.055    21.551     6.608
   101   1 H        0.925     0.012     2.855     2.642
   102   1 H        0.924     0.023     2.687     2.563
   103   6 C        3.749    -0.108    22.635     6.786
   104   1 H        0.924     0.058     2.222     2.331
   105   1 H        0.925     0.036     2.507     2.476
   106   1 H        0.924     0.041     2.436     2.441
   107   6 C        2.760     0.211    23.539     7.945
   108   8 O        0.856    -0.357    20.841     6.121
   109   1 H        0.860     0.188     1.168     1.693
   110   1 H        0.923     0.064     2.149     2.292
   111   1 H        0.860     0.176     1.236     1.742
   112   1 H        0.923     0.059     2.213     2.326
   113   1 H        0.860     0.185     1.184     1.705
   114   1 H        0.923     0.051     2.310     2.377
   115   1 H        0.860     0.183     1.198     1.714
   116   1 H        0.923     0.067     2.114     2.274

 Mol. C6AA /au·bohr⁶  :     133624.960754
 Mol. C8AA /au·bohr⁸  :    3022587.991336
 Mol. α(0) /au        :        557.005993


Wiberg/Mayer (AO) data.
largest (>0.10) Wiberg bond orders for each atom

 ---------------------------------------------------------------------------
     #   Z sym  total        # sym  WBO       # sym  WBO       # sym  WBO
 ---------------------------------------------------------------------------
     1   7 N    3.026 --     3 C    1.029     2 H    0.958   109 H    0.950
     2   1 H    0.976 --     1 N    0.958
     3   6 C    3.984 --     1 N    1.029     5 C    0.956     4 H    0.948
                            19 C    0.940
     4   1 H    0.995 --     3 C    0.948
     5   6 C    3.990 --     8 C    1.010     6 H    0.969     3 C    0.956
                             7 H    0.955
     6   1 H    0.995 --     5 C    0.969
     7   1 H    0.998 --     5 C    0.955
     8   6 C    3.987 --     9 C    1.427    17 C    1.395     5 C    1.010
                            13 C    0.109
     9   6 C    3.989 --    11 C    1.428     8 C    1.427    10 H    0.969
                            15 C    0.109
    10   1 H    0.998 --     9 C    0.969
    11   6 C    3.989 --    13 C    1.452     9 C    1.428    12 H    0.970
                            17 C    0.112
    12   1 H    0.997 --    11 C    0.970
    13   6 C    3.990 --    11 C    1.452    15 C    1.420    14 H    0.971
                             8 C    0.109
    14   1 H    0.998 --    13 C    0.971
    15   6 C    3.991 --    17 C    1.458    13 C    1.420    16 H    0.971
                             9 C    0.109
    16   1 H    0.999 --    15 C    0.971
    17   6 C    3.992 --    15 C    1.458     8 C    1.395    18 H    0.966
                            11 C    0.112
    18   1 H    1.000 --    17 C    0.966
    19   6 C    3.933 --    20 O    1.602    21 N    1.302     3 C    0.940
    20   8 O    1.914 --    19 C    1.602    21 N    0.191
    21   7 N    3.469 --    19 C    1.302    23 C    0.980    22 H    0.913
                            20 O    0.191
    22   1 H    0.955 --    21 N    0.913
    23   6 C    3.974 --    31 C    0.989    21 N    0.980    24 H    0.954
                            25 C    0.943
    24   1 H    0.995 --    23 C    0.954
    25   6 C    3.981 --    26 H    0.971    27 H    0.946    23 C    0.943
                            28 C    0.938
    26   1 H    0.998 --    25 C    0.971
    27   1 H    0.996 --    25 C    0.946
    28   6 C    3.937 --    30 O    1.496    29 O    1.479    25 C    0.938
    29   8 O    1.768 --    28 C    1.479    30 O    0.216
    30   8 O    1.786 --    28 C    1.496    29 O    0.216
    31   6 C    3.876 --    32 O    1.885    23 C    0.989   110 H    0.939
    32   8 O    2.040 --    31 C    1.885
    33   7 N    3.017 --    35 C    1.032    34 H    0.956   111 H    0.956
    34   1 H    0.972 --    33 N    0.956
    35   6 C    3.984 --    33 N    1.032    52 C    0.983    37 C    0.947
                            36 H    0.925
    36   1 H    0.993 --    35 C    0.925
    37   6 C    3.990 --    40 C    1.009    39 H    0.967    38 H    0.963
                            35 C    0.947
    38   1 H    0.995 --    37 C    0.963
    39   1 H    0.996 --    37 C    0.967
    40   6 C    3.987 --    41 C    1.410    50 C    1.408    37 C    1.009
    41   6 C    3.988 --    43 C    1.451    40 C    1.410    42 H    0.968
                            48 C    0.105
    42   1 H    0.997 --    41 C    0.968
    43   6 C    3.985 --    41 C    1.451    45 C    1.361    44 H    0.969
                            50 C    0.111
    44   1 H    0.997 --    43 C    0.969
    45   6 C    3.928 --    48 C    1.377    43 C    1.361    46 O    1.062
    46   8 O    2.065 --    45 C    1.062    47 H    0.847
    47   1 H    0.867 --    46 O    0.847
    48   6 C    3.984 --    50 C    1.441    45 C    1.377    49 H    0.966
                            41 C    0.105
    49   1 H    0.998 --    48 C    0.966
    50   6 C    3.987 --    48 C    1.441    40 C    1.408    51 H    0.966
                            43 C    0.111
    51   1 H    0.998 --    50 C    0.966
    52   6 C    3.881 --    53 O    1.877    35 C    0.983   112 H    0.933
    53   8 O    2.043 --    52 C    1.877
    54   7 N    3.123 --    56 C    1.011   113 H    0.951    55 H    0.932
                            69 C    0.101
    55   1 H    0.967 --    54 N    0.932
    56   6 C    3.981 --    54 N    1.011    69 C    0.968    57 H    0.965
                            58 C    0.957
    57   1 H    0.997 --    56 C    0.965
    58   6 C    3.993 --    61 C    1.008    59 H    0.966    60 H    0.966
                            56 C    0.957
    59   1 H    0.998 --    58 C    0.966
    60   1 H    0.996 --    58 C    0.966
    61   6 C    3.971 --    67 C    1.559    62 N    1.272    58 C    1.008
    62   7 N    2.998 --    63 C    1.530    61 C    1.272    65 N    0.103
    63   6 C    3.955 --    62 N    1.530    65 N    1.285    64 H    0.963
                            67 C    0.119
    64   1 H    0.997 --    63 C    0.963
    65   7 N    3.595 --    63 C    1.285    67 C    1.211    66 H    0.922
                            62 N    0.103
    66   1 H    0.950 --    65 N    0.922
    67   6 C    3.940 --    61 C    1.559    65 N    1.211    68 H    0.967
                            63 C    0.119
    68   1 H    0.999 --    67 C    0.967
    69   6 C    3.877 --    70 O    1.835    56 C    0.968   114 H    0.940
                            54 N    0.101
    70   8 O    2.046 --    69 C    1.835
    71   7 N    2.997 --    73 C    1.017    72 H    0.954   115 H    0.951
    72   1 H    0.974 --    71 N    0.954
    73   6 C    3.981 --    71 N    1.017    75 C    0.963    74 H    0.955
                            88 C    0.938
    74   1 H    0.997 --    73 C    0.955
    75   6 C    3.990 --    77 C    1.004    81 C    0.993    76 H    0.963
                            73 C    0.963
    76   1 H    0.997 --    75 C    0.963
    77   6 C    3.993 --    75 C    1.004    79 H    0.985    78 H    0.980
Note: The following floating-point exceptions are signalling: IEEE_UNDERFLOW_FLAG IEEE_DENORMAL
normal termination of xtb
                            80 H    0.975
    78   1 H    0.999 --    77 C    0.980
    79   1 H    0.998 --    77 C    0.985
    80   1 H    0.997 --    77 C    0.975
    81   6 C    3.996 --    84 C    1.019    75 C    0.993    83 H    0.975
                            82 H    0.968
    82   1 H    1.000 --    81 C    0.968
    83   1 H    0.998 --    81 C    0.975
    84   6 C    3.995 --    81 C    1.019    85 H    0.987    87 H    0.985
                            86 H    0.984
    85   1 H    0.998 --    84 C    0.987
    86   1 H    0.998 --    84 C    0.984
    87   1 H    0.999 --    84 C    0.985
    88   6 C    3.941 --    89 O    1.607    90 N    1.319    73 C    0.938
    89   8 O    1.911 --    88 C    1.607    90 N    0.191
    90   7 N    3.484 --    88 C    1.319    92 C    0.970    91 H    0.881
                            89 O    0.191
    91   1 H    0.944 --    90 N    0.881
    92   6 C    3.964 --    90 N    0.970   107 C    0.969    94 C    0.958
                            93 H    0.956
    93   1 H    0.994 --    92 C    0.956
    94   6 C    3.985 --    96 C    1.009   100 C    0.991    92 C    0.958
                            95 H    0.954
    95   1 H    0.995 --    94 C    0.954
    96   6 C    3.990 --    94 C    1.009    97 H    0.983    99 H    0.982
                            98 H    0.976
    97   1 H    0.997 --    96 C    0.983
    98   1 H    0.996 --    96 C    0.976
    99   1 H    0.999 --    96 C    0.982
   100   6 C    3.994 --   103 C    1.018    94 C    0.991   102 H    0.974
                           101 H    0.971
   101   1 H    1.000 --   100 C    0.971
   102   1 H    0.999 --   100 C    0.974
   103   6 C    3.993 --   100 C    1.018   106 H    0.984   105 H    0.983
                           104 H    0.980
   104   1 H    0.996 --   103 C    0.980
   105   1 H    0.998 --   103 C    0.983
   106   1 H    0.998 --   103 C    0.984
   107   6 C    3.875 --   108 O    1.896    92 C    0.969   116 H    0.937
   108   8 O    2.060 --   107 C    1.896
   109   1 H    0.964 --     1 N    0.950
   110   1 H    0.995 --    31 C    0.939
   111   1 H    0.969 --    33 N    0.956
   112   1 H    0.995 --    52 C    0.933
   113   1 H    0.965 --    54 N    0.951
   114   1 H    0.997 --    69 C    0.940
   115   1 H    0.966 --    71 N    0.951
   116   1 H    0.995 --   107 C    0.937
 ---------------------------------------------------------------------------

Topologies differ in total number of bonds
Writing topology from bond orders to xtbtopo.mol

molecular dipole:
                 x           y           z       tot (Debye)
 q only:      -25.481     -24.762     -92.688
   full:      -26.047     -25.125     -93.084     253.848
molecular quadrupole (traceless):
                xx          xy          yy          xz          yz          zz
 q only:     3999.268    -899.970    3950.070   -3556.938   -3475.348   -7949.339
  q+dip:     4002.775    -928.977    3998.996   -3665.989   -3542.715   -8001.771
   full:     4003.747    -929.958    4000.114   -3661.451   -3542.477   -8003.860


           -------------------------------------------------
          | TOTAL ENERGY             -175.895688726193 Eh   |
          | GRADIENT NORM               0.190465314992 Eh/α |
          | HOMO-LUMO GAP               1.245869118399 eV   |
           -------------------------------------------------

------------------------------------------------------------------------
 * finished run on 2026/01/05 at 09:07:40.148     
------------------------------------------------------------------------
 total:
 * wall-time:     0 d,  0 h,  0 min,  0.504 sec
 *  cpu-time:     0 d,  0 h,  0 min,  7.409 sec
 * ratio c/w:    14.697 speedup
 SCF:
 * wall-time:     0 d,  0 h,  0 min,  0.470 sec
 *  cpu-time:     0 d,  0 h,  0 min,  6.906 sec
 * ratio c/w:    14.688 speedup

