      -----------------------------------------------------------      
     |                   =====================                   |     
     |                           x T B                           |     
     |                   =====================                   |     
     |                         S. Grimme                         |     
     |          Mulliken Center for Theoretical Chemistry        |     
     |                    University of Bonn                     |     
      -----------------------------------------------------------      

   * xtb version 6.7.1 (edcfbbe) compiled by 'conda@c0858423619e' on 2025-09-04

   xtb is free software: you can redistribute it and/or modify it under
   the terms of the GNU Lesser General Public License as published by
   the Free Software Foundation, either version 3 of the License, or
   (at your option) any later version.
   
   xtb is distributed in the hope that it will be useful,
   but WITHOUT ANY WARRANTY; without even the implied warranty of
   MERCHANTABILITY or FITNESS FOR A PARTICULAR PURPOSE.  See the
   GNU Lesser General Public License for more details.
   
   Cite this work as:
   * C. Bannwarth, E. Caldeweyher, S. Ehlert, A. Hansen, P. Pracht,
     J. Seibert, S. Spicher, S. Grimme, WIREs Comput. Mol. Sci., 2020, 11,
     e01493. DOI: 10.1002/wcms.1493
   
   for GFN2-xTB:
   * C. Bannwarth, S. Ehlert and S. Grimme., J. Chem. Theory Comput., 2019,
     15, 1652-1671. DOI: 10.1021/acs.jctc.8b01176
   for GFN1-xTB:
   * S. Grimme, C. Bannwarth, P. Shushkov, J. Chem. Theory Comput., 2017,
     13, 1989-2009. DOI: 10.1021/acs.jctc.7b00118
   for GFN0-xTB:
   * P. Pracht, E. Caldeweyher, S. Ehlert, S. Grimme, ChemRxiv, 2019, preprint.
     DOI: 10.26434/chemrxiv.8326202.v1
   for GFN-FF:
   * S. Spicher and S. Grimme, Angew. Chem. Int. Ed., 2020, 59, 15665-15673.
     DOI: 10.1002/anie.202004239
   
   for ALPB and GBSA implicit solvation:
   * S. Ehlert, M. Stahn, S. Spicher, S. Grimme, J. Chem. Theory Comput.,
     2021, 17, 4250-4261. DOI: 10.1021/acs.jctc.1c00471
   
   for ddCOSMO and CPCM-X implicit solvation:
   * M. Stahn, S. Ehlert, S. Grimme, J. Phys. Chem. A,
     2023, XX, XXXX-XXXX. DOI: 10.1021/acs.jpca.3c04382
   
   for DFT-D4:
   * E. Caldeweyher, C. Bannwarth and S. Grimme, J. Chem. Phys., 2017,
     147, 034112. DOI: 10.1063/1.4993215
   * E. Caldeweyher, S. Ehlert, A. Hansen, H. Neugebauer, S. Spicher,
     C. Bannwarth and S. Grimme, J. Chem. Phys., 2019, 150, 154122.
     DOI: 10.1063/1.5090222
   * E. Caldeweyher, J.-M. Mewes, S. Ehlert and S. Grimme, Phys. Chem. Chem. Phys.
     2020, 22, 8499-8512. DOI: 10.1039/D0CP00502A
   
   for sTDA-xTB:
   * S. Grimme and C. Bannwarth, J. Chem. Phys., 2016, 145, 054103.
     DOI: 10.1063/1.4959605
   
   in the mass-spec context:
   * V. Asgeirsson, C. Bauer and S. Grimme, Chem. Sci., 2017, 8, 4879.
     DOI: 10.1039/c7sc00601b
   * J. Koopman and S. Grimme, ACS Omega 2019, 4, 12, 15120-15133.
     DOI: 10.1021/acsomega.9b02011
   
   for metadynamics refer to:
   * S. Grimme, J. Chem. Theory Comput., 2019, 155, 2847-2862
     DOI: 10.1021/acs.jctc.9b00143
   
   for SPH calculations refer to:
   * S. Spicher and S. Grimme, J. Chem. Theory Comput., 2021, 17, 1701-1714
     DOI: 10.1021/acs.jctc.0c01306
   
   for ONIOM refer to:
   * C. Plett, A. Katbashev, S. Ehlert, S. Grimme, M. Bursch,
     Phys. Chem. Chem. Phys., 2023, 25, 17860-17868. DOI: 10.1039/D3CP02178E
   
   for DIPRO refer to:
   * J. Kohn, N. Gildemeister, S. Grimme, D. Fazzi, A. Hansen,
     J. Chem. Phys., 2023, just accepted.
   
   for PTB refer to:
   * S. Grimme, M. Mueller, A. Hansen, J. Chem. Phys., 2023, 158, 124111.
     DOI: 10.1063/5.0137838
   
   with help from (in alphabetical order)
   P. Atkinson, C. Bannwarth, F. Bohle, G. Brandenburg, E. Caldeweyher
   M. Checinski, S. Dohm, S. Ehlert, S. Ehrlich, I. Gerasimov, C. Hölzer
   A. Katbashev, J. Kohn, J. Koopman, C. Lavigne, S. Lehtola, F. März, M. Müller,
   F. Musil, H. Neugebauer, J. Pisarek, C. Plett, P. Pracht, F. Pultar,
   J. Seibert, P. Shushkov, S. Spicher, M. Stahn, M. Steiner, T. Strunk,
   J. Stückrath, T. Rose, and J. Unsleber
   
 * started run on 2026/01/05 at 09:06:08.493     
   ID    Z sym.   atoms
    1    6 C      1, 3-11, 14-16, 18, 20, 21, 24-29, 32, 62, 64, 67, 68, 70,
                  72, 75, 77, 79, 83, 85, 88, 89, 91, 93, 95, 97, 99, 103,
                  105, 108, 111, 115, 117, 120, 121, 123, 125, 127, 129, 131,
                  135, 137, 140, 143, 148, 152, 154, 157, 160, 163, 167, 169,
                  171, 175, 179, 183, 185, 187, 191, 194, 198, 202, 204, 207,
                  208, 212, 213, 215, 217, 219, 221, 222, 226, 228, 231, 232,
                  234, 236, 239, 241, 243, 247, 249, 252, 254, 258, 260, 264,
                  266, 268, 272, 275, 279, 283, 285, 287, 291, 294, 298, 302,
                  304, 307, 309, 313, 317, 321, 323, 326, 327, 329, 331, 333,
                  335, 337
    2    7 N      2, 22, 60, 81, 101, 113, 133, 145, 150, 165, 181, 200, 210,
                  224, 245, 253, 256, 262, 281, 300, 319
    3    8 O      12, 13, 17, 30, 31, 73, 80, 100, 109, 110, 112, 132, 144,
                  149, 161, 162, 164, 180, 199, 223, 237, 244, 261, 280, 299,
                  318, 338
    4   16 S      19, 23
    5    1 H      33-59, 61, 63, 65, 66, 69, 71, 74, 76, 78, 82, 84, 86, 87,
                  90, 92, 94, 96, 98, 102, 104, 106, 107, 114, 116, 118, 119,
                  122, 124, 126, 128, 130, 134, 136, 138, 139, 141, 142, 146,
                  147, 151, 153, 155, 156, 158, 159, 166, 168, 170, 172-174,
                  176-178, 182, 184, 186, 188-190, 192, 193, 195-197, 201,
                  203, 205, 206, 209, 211, 214, 216, 218, 220, 225, 227, 229,
                  230, 233, 235, 238, 240, 242, 246, 248, 250, 251, 255, 257,
                  259, 263, 265, 267, 269-271, 273, 274, 276-278, 282, 284,
                  286, 288-290, 292, 293, 295-297, 301, 303, 305, 306, 308,
                  310-312, 314-316, 320, 322, 324, 325, 328, 330, 332, 334,
                  336, 339-358

           -------------------------------------------------
          |                Calculation Setup                |
           -------------------------------------------------

          program call               : xtb /home/antonio_mesquita/Documentos/gmx_ISA_project/testes_arquivos_primeiros/gmx_ISA_testes/testes_qm_xtb/QM_analysis/QM_FRAMES_CAPPED/frame_0ps/complex_capped_0ps.xyz --gfn 2 --alpb water --chrg -1 --etemp 1500 --cycles 1000
          coordinate file            : /home/antonio_mesquita/Documentos/gmx_ISA_project/testes_arquivos_primeiros/gmx_ISA_testes/testes_qm_xtb/QM_analysis/QM_FRAMES_CAPPED/frame_0ps/complex_capped_0ps.xyz
          omp threads                :                    16


molecular fragmentation (1/2 indicates fragments):
111111111111111111111111111111111111111111111111111111111112222222222222
222222222222222222222222222222222222222222222222222222222222222222222222
222222222222222222222222222222222222222222222222222222222222222222222222
222222222222222222222222222222222222222222222222222222222222222222222222
2222222222222222222222222222222222222222222222222222222222222222222222
# atoms in fragment 1/2:    59   299
 fragment masses (1/2) :      475.60     2033.46
CMA distance (Bohr)    :   5.899
constraining FC (au)   :  0.0500

           -------------------------------------------------
          |                 G F N 2 - x T B                 |
           -------------------------------------------------

        Reference                      10.1021/acs.jctc.8b01176
      * Hamiltonian:
        H0-scaling (s, p, d)           1.850000    2.230000    2.230000
        zeta-weighting                 0.500000
      * Dispersion:
        s8                             2.700000
        a1                             0.520000
        a2                             5.000000
        s9                             5.000000
      * Repulsion:
        kExp                           1.500000    1.000000
        rExp                           1.000000
      * Coulomb:
        alpha                          2.000000
        third order                    shell-resolved
        anisotropic                    true
        a3                             3.000000
        a5                             4.000000
        cn-shift                       1.200000
        cn-exp                         4.000000
        max-rad                        5.000000

      * Solvation model:               ALPB
        Solvent                        water
        Parameter file                 internal GFN2-xTB/ALPB
        Dielectric constant                8.0200E+01
        Reference state                gsolv [1 M gas/solution]
        Free energy shift                  1.0808E-03 Eh       6.7819E-01 kcal/mol
        Temperature                        2.9815E+02 K
        Density                            1.0000E+00 kg/L
        Solvent mass                       1.8000E+01 g/mol
        Interaction kernel             P16
        Born radius scaling (c1)           1.4744E+00
        Born radii integrator          GBOBC
        Born offset                        0.0000E+00 a0       0.0000E+00 AA
        H-bond correction              true
        Ion screening                  false
        Surface tension                    1.0000E-05 Eh       1.5569E+01 dyn/cm
        Grid points                               230 per atom

          ...................................................
          :                      SETUP                      :
          :.................................................:
          :  # basis functions                 904          :
          :  # atomic orbitals                 902          :
          :  # shells                          538          :
          :  # electrons                       972          :
          :  max. iterations                   250          :
          :  Hamiltonian                  GFN2-xTB          :
          :  restarted?                      false          :
          :  GBSA solvation                   true          :
          :  PC potential                    false          :
          :  electronic temp.         1500.0000000     K    :
          :  accuracy                    1.0000000          :
          :  -> integral cutoff          0.2500000E+02      :
          :  -> integral neglect         0.1000000E-07      :
          :  -> SCF convergence          0.1000000E-05 Eh   :
          :  -> wf. convergence          0.1000000E-03 e    :
          :  Broyden damping             0.4000000          :
          :  net charge                         -1          :
          :  unpaired electrons                  0          :
          ...................................................

 iter      E             dE          RMSdq      gap      omega  full diag
   1   -549.2932360 -0.549293E+03  0.441E+00    0.04       0.0  T
   2   -550.1976924 -0.904456E+00  0.243E+00    0.87       1.0  T
   3   -550.0528238  0.144869E+00  0.156E+00    0.02       1.0  T
   4   -550.2437668 -0.190943E+00  0.822E-01    0.82       1.0  T
   5   -550.3307124 -0.869456E-01  0.602E-01    0.09       1.0  T
   6   -550.4384580 -0.107746E+00  0.282E-01    0.09       1.0  T
   7   -550.4515420 -0.130840E-01  0.182E-01    0.31       1.0  T
   8   -550.4600819 -0.853982E-02  0.901E-02    0.22       1.0  T
   9   -550.4612399 -0.115803E-02  0.594E-02    0.31       1.0  T
  10   -550.4618701 -0.630201E-03  0.379E-02    0.29       1.0  T
  11   -550.4621920 -0.321894E-03  0.199E-02    0.30       1.0  T
  12   -550.4622306 -0.385704E-04  0.146E-02    0.29       1.0  T
  13   -550.4622754 -0.447989E-04  0.799E-03    0.30       1.0  T
  14   -550.4622834 -0.800645E-05  0.486E-03    0.30       1.1  T
  15   -550.4622870 -0.358273E-05  0.314E-03    0.29       1.7  T
  16   -550.4622891 -0.212369E-05  0.158E-03    0.29       3.4  T
  17   -550.4622894 -0.315193E-06  0.100E-03    0.29       5.3  T
  18   -550.4622895 -0.740293E-07  0.719E-04    0.30       7.3  T

   *** convergence criteria satisfied after 18 iterations ***

         #    Occupation            Energy/Eh            Energy/eV
      -------------------------------------------------------------
         1        2.0000           -0.7976512             -21.7052
       ...           ...                  ...                  ...
       480        1.9087           -0.3558898              -9.6843
       481        1.8960           -0.3552429              -9.6667
       482        1.8947           -0.3551789              -9.6649
       483        1.8832           -0.3546578              -9.6507
       484        1.8733           -0.3542448              -9.6395
       485        1.8655           -0.3539418              -9.6312
       486        1.8414           -0.3530971              -9.6083 (HOMO)
       487        1.0830           -0.3422409              -9.3128 (LUMO)
       488        0.0004           -0.3010651              -8.1924
       489        0.0001           -0.2922924              -7.9537
       490        0.0001           -0.2917526              -7.9390
       491        0.0000           -0.2907597              -7.9120
       ...           ...                  ...                  ...
       902                          1.0365428              28.2058
      -------------------------------------------------------------
                  HL-Gap            0.0108562 Eh            0.2954 eV
             Fermi-level           -0.3414507 Eh           -9.2913 eV

 SCC (total)                   0 d,  0 h,  0 min,  4.376 sec
 SCC setup                      ...        0 min,  0.017 sec (  0.398%)
 Dispersion                     ...        0 min,  0.035 sec (  0.809%)
 classical contributions        ...        0 min,  0.004 sec (  0.088%)
 integral evaluation            ...        0 min,  0.068 sec (  1.559%)
 iterations                     ...        0 min,  3.755 sec ( 85.808%)
 molecular gradient             ...        0 min,  0.466 sec ( 10.640%)
 printout                       ...        0 min,  0.030 sec (  0.697%)

         :::::::::::::::::::::::::::::::::::::::::::::::::::::
         ::                     SUMMARY                     ::
         :::::::::::::::::::::::::::::::::::::::::::::::::::::
         :: total energy            -543.513270565051 Eh    ::
         :: total w/o Gsasa/hb      -543.484396437230 Eh    ::
         :: gradient norm              0.357871372954 Eh/a0 ::
         :: HOMO-LUMO gap              0.295412368537 eV    ::
         ::.................................................::
         :: SCC energy              -550.416675926645 Eh    ::
         :: -> isotropic ES            1.382050821894 Eh    ::
         :: -> anisotropic ES         -0.013740902490 Eh    ::
         :: -> anisotropic XC          0.235681552077 Eh    ::
         :: -> dispersion             -0.475635497138 Eh    ::
         :: -> Gsolv                  -0.366666681880 Eh    ::
         ::    -> Gelec               -0.337792554059 Eh    ::
         ::    -> Gsasa                0.017154766701 Eh    ::
         ::    -> Ghb                 -0.047109654220 Eh    ::
         ::    -> Gshift               0.001080759698 Eh    ::
         :: repulsion energy           6.903405361595 Eh    ::
         :: add. restraining           0.000000000000 Eh    ::
         :: total charge              -0.999999999999 e     ::
         :::::::::::::::::::::::::::::::::::::::::::::::::::::

           -------------------------------------------------
          |                Property Printout                |
           -------------------------------------------------

    * Orbital Energies and Occupations

         #    Occupation            Energy/Eh            Energy/eV
      -------------------------------------------------------------
         1        2.0000           -0.7976512             -21.7052
       ...           ...                  ...                  ...
       474        1.9876           -0.3655832              -9.9480
       475        1.9782           -0.3628617              -9.8740
       476        1.9716           -0.3615851              -9.8392
       477        1.9546           -0.3593202              -9.7776
       478        1.9432           -0.3582332              -9.7480
       479        1.9328           -0.3574090              -9.7256
       480        1.9087           -0.3558898              -9.6843
       481        1.8960           -0.3552429              -9.6667
       482        1.8947           -0.3551789              -9.6649
       483        1.8832           -0.3546578              -9.6507
       484        1.8733           -0.3542448              -9.6395
       485        1.8655           -0.3539418              -9.6312
       486        1.8414           -0.3530971              -9.6083 (HOMO)
       487        1.0830           -0.3422409              -9.3128 (LUMO)
       488        0.0004           -0.3010651              -8.1924
       489        0.0001           -0.2922924              -7.9537
       490        0.0001           -0.2917526              -7.9390
       491        0.0000           -0.2907597              -7.9120
       492        0.0000           -0.2899228              -7.8892
       493        0.0000           -0.2884062              -7.8479
       494        0.0000           -0.2870043              -7.8098
       495        0.0000           -0.2828729              -7.6974
       496        0.0000           -0.2826954              -7.6925
       497        0.0000           -0.2802556              -7.6261
       ...           ...                  ...                  ...
       902                          1.0365428              28.2058
      -------------------------------------------------------------
                  HL-Gap            0.0108562 Eh            0.2954 eV
             Fermi-level           -0.3414507 Eh           -9.2913 eV

     #   Z          covCN         q      C6AA      α(0)
     1   6 C        2.744     0.262    22.582     7.781
     2   7 N        2.685    -0.117    23.550     7.207
     3   6 C        2.868     0.025    27.451     8.588
     4   6 C        3.694     0.083    19.363     6.295
     5   6 C        3.809    -0.076    21.938     6.667
     6   6 C        2.966     0.010    27.801     8.649
     7   6 C        2.913    -0.046    29.137     8.851
     8   6 C        2.919    -0.039    28.963     8.825
     9   6 C        2.910    -0.038    28.946     8.822
    10   6 C        2.909    -0.034    28.846     8.807
    11   6 C        2.917    -0.041    29.026     8.835
    12   8 O        1.703    -0.293    18.873     5.865
    13   8 O        0.856    -0.473    23.197     6.457
    14   6 C        2.712     0.338    21.251     7.546
    15   6 C        3.746    -0.125    22.973     6.837
    16   6 C        3.874     0.011    20.352     6.415
    17   8 O        0.858    -0.447    22.646     6.380
    18   6 C        3.788    -0.014    20.840     6.502
    19  16 S        1.999    -0.160   147.821    20.463
    20   6 C        3.792    -0.019    20.921     6.514
    21   6 C        3.860     0.031    20.019     6.363
    22   7 N        2.728    -0.323    28.291     7.900
    23  16 S        3.832     1.192   101.307    16.940
    24   6 C        2.965    -0.095    30.396     9.043
    25   6 C        2.941    -0.021    28.533     8.761
    26   6 C        2.908    -0.028    28.710     8.786
    27   6 C        2.963     0.039    27.113     8.541
    28   6 C        2.926    -0.032    28.803     8.801
    29   6 C        2.948    -0.028    28.691     8.785
    30   8 O        0.860    -0.611    26.382     6.886
    31   8 O        0.859    -0.680    28.179     7.117
    32   6 C        3.754    -0.129    23.027     6.843
    33   1 H        0.860     0.224     0.994     1.561
    34   1 H        0.923     0.069     2.094     2.263
    35   1 H        0.924     0.047     2.361     2.403
    36   1 H        0.924     0.095     1.828     2.114
    37   1 H        0.923     0.096     1.823     2.112
    38   1 H        0.924     0.055     2.256     2.349
    39   1 H        0.925     0.054     2.271     2.357
    40   1 H        0.925     0.038     2.481     2.463
    41   1 H        0.925     0.034     2.535     2.490
    42   1 H        0.925     0.034     2.537     2.491
    43   1 H        0.924     0.068     2.111     2.272
    44   1 H        0.924     0.065     2.141     2.288
    45   1 H        0.924     0.050     2.315     2.379
    46   1 H        0.924     0.067     2.121     2.277
    47   1 H        0.924     0.046     2.366     2.406
    48   1 H        0.924     0.036     2.498     2.472
    49   1 H        0.923     0.062     2.176     2.307
    50   1 H        0.924     0.050     2.319     2.382
    51   1 H        0.923     0.083     1.944     2.180
    52   1 H        0.923     0.096     1.826     2.113
    53   1 H        0.925     0.028     2.622     2.532
    54   1 H        0.925     0.050     2.317     2.380
    55   1 H        0.925     0.096     1.825     2.112
    56   1 H        0.925     0.088     1.897     2.154
    57   1 H        0.923     0.078     1.995     2.209
    58   1 H        0.924     0.075     2.031     2.229
    59   1 H        0.923     0.063     2.162     2.299
    60   7 N        2.635    -0.336    28.659     7.951
    61   1 H        0.860     0.168     1.286     1.776
    62   6 C        3.785     0.044    19.860     6.348
    63   1 H        0.924     0.089     1.892     2.151
    64   6 C        3.816    -0.077    21.961     6.670
    65   1 H        0.925     0.086     1.917     2.165
    66   1 H        0.925     0.062     2.174     2.306
    67   6 C        2.970     0.002    27.971     8.675
    68   6 C        2.909    -0.045    29.123     8.849
    69   1 H        0.926     0.030     2.590     2.517
    70   6 C        2.912    -0.068    29.689     8.935
    71   1 H        0.926     0.003     3.001     2.709
    72   6 C        2.834     0.137    24.998     8.193
    73   8 O        1.658    -0.448    21.810     6.304
    74   1 H        0.805     0.334     0.627     1.244
    75   6 C        2.912    -0.062    29.544     8.913
    76   1 H        0.925     0.045     2.378     2.412
    77   6 C        2.906    -0.042    29.048     8.837
    78   1 H        0.926     0.068     2.104     2.268
    79   6 C        2.761     0.211    23.528     7.943
    80   8 O        0.856    -0.390    21.485     6.214
    81   7 N        2.632    -0.361    29.320     8.042
    82   1 H        0.861     0.166     1.294     1.782
    83   6 C        3.785     0.033    20.030     6.375
    84   1 H        0.924     0.075     2.031     2.229
    85   6 C        3.808    -0.076    21.955     6.670
    86   1 H        0.925     0.085     1.929     2.172
    87   1 H        0.924     0.062     2.170     2.304
    88   6 C        2.950     0.006    27.891     8.662
    89   6 C        2.938    -0.041    29.025     8.836
    90   1 H        0.925     0.058     2.226     2.333
    91   6 C        2.901    -0.037    28.908     8.816
    92   1 H        0.926     0.069     2.101     2.267
    93   6 C        2.931    -0.030    28.754     8.794
    94   1 H        0.925     0.031     2.566     2.505
    95   6 C        2.899    -0.032    28.791     8.798
    96   1 H        0.925    -0.008     3.195     2.795
    97   6 C        2.942    -0.034    28.845     8.809
    98   1 H        0.925     0.002     3.029     2.722
    99   6 C        2.752     0.266    22.516     7.770
   100   8 O        0.862    -0.531    24.479     6.634
   101   7 N        2.687    -0.165    24.578     7.363
   102   1 H        0.860     0.209     1.061     1.613
   103   6 C        3.794     0.043    19.865     6.347
   104   1 H        0.925     0.100     1.788     2.091
   105   6 C        3.805    -0.071    21.862     6.656
   106   1 H        0.924     0.026     2.649     2.545
   107   1 H        0.924     0.054     2.275     2.359
   108   6 C        2.691     0.365    20.806     7.465
   109   8 O        0.857    -0.648    27.329     7.009
   110   8 O        0.857    -0.630    26.855     6.948
   111   6 C        2.761     0.212    23.503     7.939
   112   8 O        0.856    -0.361    20.916     6.132
   113   7 N        2.638    -0.344    28.846     7.977
   114   1 H        0.860     0.188     1.168     1.693
   115   6 C        3.784     0.042    19.879     6.351
   116   1 H        0.924     0.060     2.195     2.317
   117   6 C        3.821    -0.072    21.866     6.655
   118   1 H        0.925     0.055     2.254     2.348
   119   1 H        0.925     0.070     2.091     2.261
   120   6 C        2.978     0.001    28.002     8.680
   121   6 C        2.914    -0.042    29.039     8.837
   122   1 H        0.925     0.035     2.522     2.483
   123   6 C        2.910    -0.027    28.675     8.781
   124   1 H        0.925     0.035     2.510     2.478
   125   6 C        2.908    -0.033    28.817     8.802
   126   1 H        0.925     0.032     2.563     2.503
   127   6 C        2.930    -0.041    29.031     8.836
   128   1 H        0.926     0.035     2.519     2.482
   129   6 C        2.903    -0.051    29.272     8.871
   130   1 H        0.925     0.047     2.361     2.403
   131   6 C        2.758     0.209    23.572     7.951
   132   8 O        0.856    -0.365    21.001     6.144
   133   7 N        2.633    -0.362    29.349     8.046
   134   1 H        0.860     0.181     1.210     1.723
   135   6 C        3.787     0.024    20.182     6.399
   136   1 H        0.925     0.077     2.015     2.220
   137   6 C        3.807    -0.065    21.746     6.638
   138   1 H        0.925     0.058     2.228     2.334
   139   1 H        0.925     0.048     2.347     2.396
   140   6 C        3.803    -0.099    22.380     6.735
   141   1 H        0.924     0.070     2.086     2.259
   142   1 H        0.925     0.074     2.039     2.233
   143   6 C        2.742     0.289    22.093     7.696
   144   8 O        0.861    -0.538    24.648     6.656
   145   7 N        2.638    -0.293    27.544     7.795
   146   1 H        0.860     0.240     0.924     1.506
   147   1 H        0.860     0.255     0.866     1.457
   148   6 C        2.749     0.262    22.577     7.780
   149   8 O        0.860    -0.511    24.020     6.571
   150   7 N        2.691    -0.178    24.852     7.404
   151   1 H        0.860     0.201     1.098     1.642
   152   6 C        3.793     0.024    20.171     6.396
   153   1 H        0.924     0.088     1.899     2.155
   154   6 C        3.809    -0.058    21.614     6.618
   155   1 H        0.925     0.042     2.426     2.436
   156   1 H        0.925     0.073     2.053     2.240
   157   6 C        3.803    -0.084    22.098     6.693
   158   1 H        0.925     0.027     2.631     2.536
   159   1 H        0.925     0.022     2.702     2.571
   160   6 C        2.690     0.367    20.772     7.459
   161   8 O        0.857    -0.646    27.289     7.004
   162   8 O        0.856    -0.657    27.562     7.039
   163   6 C        2.747     0.278    22.303     7.733
   164   8 O        0.859    -0.497    23.723     6.530
   165   7 N        2.691    -0.158    24.424     7.340
   166   1 H        0.860     0.206     1.078     1.626
   167   6 C        3.797     0.029    20.086     6.382
   168   1 H        0.925     0.061     2.188     2.313
   169   6 C        3.854    -0.016    20.821     6.490
   170   1 H        0.924     0.048     2.350     2.397
   171   6 C        3.753    -0.103    22.529     6.768
   172   1 H        0.925     0.044     2.395     2.420
   173   1 H        0.924     0.027     2.629     2.536
   174   1 H        0.924     0.048     2.342     2.393
   175   6 C        3.756    -0.117    22.798     6.808
   176   1 H        0.925     0.046     2.376     2.411
   177   1 H        0.924     0.054     2.265     2.353
   178   1 H        0.926     0.046     2.372     2.408
   179   6 C        2.756     0.267    22.497     7.767
   180   8 O        0.861    -0.523    24.296     6.609
   181   7 N        2.692    -0.162    24.514     7.353
   182   1 H        0.860     0.226     0.981     1.551
   183   6 C        3.794     0.035    19.985     6.366
   184   1 H        0.925     0.090     1.875     2.141
   185   6 C        3.858    -0.019    20.881     6.499
   186   1 H        0.924     0.065     2.147     2.291
   187   6 C        3.753    -0.122    22.895     6.823
   188   1 H        0.925     0.053     2.286     2.365
   189   1 H        0.925     0.067     2.123     2.279
   190   1 H        0.924     0.041     2.432     2.439
   191   6 C        3.802    -0.069    21.822     6.651
   192   1 H        0.924     0.051     2.304     2.373
   193   1 H        0.925     0.045     2.383     2.414
   194   6 C        3.749    -0.113    22.726     6.799
   195   1 H        0.925     0.051     2.312     2.378
   196   1 H        0.924     0.052     2.296     2.370
   197   1 H        0.924     0.036     2.505     2.475
   198   6 C        2.764     0.207    23.608     7.957
   199   8 O        0.856    -0.373    21.146     6.165
   200   7 N        2.633    -0.335    28.631     7.947
   201   1 H        0.860     0.195     1.129     1.665
   202   6 C        3.784     0.031    20.078     6.383
   203   1 H        0.925     0.083     1.948     2.183
   204   6 C        3.811    -0.067    21.768     6.641
   205   1 H        0.925     0.049     2.328     2.386
   206   1 H        0.925     0.068     2.107     2.270
   207   6 C        3.012    -0.030    28.720     8.791
   208   6 C        2.993    -0.006    28.171     8.707
   209   1 H        0.926     0.083     1.950     2.183
   210   7 N        2.801    -0.097    23.139     7.144
   211   1 H        0.860     0.177     1.232     1.739
   212   6 C        2.994     0.043    27.031     8.528
   213   6 C        2.899    -0.052    29.297     8.875
   214   1 H        0.926     0.017     2.774     2.604
   215   6 C        2.933    -0.036    28.895     8.816
   216   1 H        0.925     0.012     2.857     2.643
   217   6 C        2.901    -0.046    29.148     8.852
   218   1 H        0.926     0.031     2.573     2.508
   219   6 C        2.920    -0.040    29.005     8.832
   220   1 H        0.926     0.022     2.703     2.571
   221   6 C        3.142    -0.022    28.312     8.707
   222   6 C        2.758     0.204    23.671     7.967
   223   8 O        0.856    -0.393    21.551     6.224
   224   7 N        2.633    -0.332    28.548     7.935
   225   1 H        0.860     0.190     1.161     1.688
   226   6 C        3.789     0.040    19.916     6.356
   227   1 H        0.924     0.091     1.873     2.140
   228   6 C        3.818    -0.068    21.791     6.644
   229   1 H        0.925     0.067     2.118     2.276
   230   1 H        0.924     0.066     2.134     2.285
   231   6 C        2.969     0.006    27.876     8.660
   232   6 C        2.913    -0.040    29.004     8.831
   233   1 H        0.925     0.058     2.222     2.331
   234   6 C        2.906    -0.056    29.396     8.890
   235   1 H        0.926     0.048     2.339     2.392
   236   6 C        2.839     0.142    24.897     8.177
   237   8 O        1.661    -0.458    22.001     6.332
   238   1 H        0.806     0.328     0.642     1.258
   239   6 C        2.909    -0.067    29.657     8.930
   240   1 H        0.926     0.040     2.453     2.449
   241   6 C        2.911    -0.046    29.143     8.852
   242   1 H        0.926     0.053     2.277     2.360
   243   6 C        2.764     0.199    23.761     7.983
   244   8 O        0.856    -0.400    21.677     6.242
   245   7 N        2.631    -0.322    28.280     7.898
   246   1 H        0.860     0.203     1.090     1.635
   247   6 C        3.795     0.041    19.897     6.352
   248   1 H        0.924     0.064     2.150     2.293
   249   6 C        3.808    -0.074    21.902     6.662
   250   1 H        0.925     0.060     2.199     2.319
   251   1 H        0.924     0.075     2.034     2.230
   252   6 C        3.141     0.041    26.839     8.478
   253   7 N        1.893    -0.319    29.114     7.999
   254   6 C        3.061     0.082    26.115     8.380
   255   1 H        0.925     0.046     2.372     2.409
   256   7 N        2.799    -0.096    23.118     7.141
   257   1 H        0.860     0.213     1.040     1.598
   258   6 C        2.990    -0.039    28.948     8.826
   259   1 H        0.925     0.055     2.253     2.347
   260   6 C        2.759     0.204    23.667     7.967
   261   8 O        0.859    -0.357    20.835     6.120
   262   7 N        2.632    -0.347    28.951     7.991
   263   1 H        0.860     0.185     1.184     1.705
   264   6 C        3.791     0.020    20.243     6.408
   265   1 H        0.924     0.050     2.323     2.384
   266   6 C        3.856    -0.027    21.010     6.519
   267   1 H        0.924     0.053     2.287     2.365
   268   6 C        3.754    -0.124    22.934     6.829
   269   1 H        0.925     0.052     2.293     2.368
   270   1 H        0.925     0.053     2.281     2.362
   271   1 H        0.924     0.043     2.405     2.425
   272   6 C        3.804    -0.059    21.625     6.620
   273   1 H        0.925     0.033     2.548     2.496
   274   1 H        0.924     0.037     2.487     2.466
   275   6 C        3.750    -0.105    22.568     6.775
   276   1 H        0.925     0.025     2.658     2.550
   277   1 H        0.924     0.033     2.545     2.495
   278   1 H        0.924     0.044     2.403     2.424
   279   6 C        2.755     0.269    22.450     7.759
   280   8 O        0.858    -0.522    24.278     6.606
   281   7 N        2.686    -0.160    24.466     7.346
   282   1 H        0.860     0.234     0.948     1.525
   283   6 C        3.801     0.026    20.136     6.389
   284   1 H        0.925     0.091     1.872     2.139
   285   6 C        3.854    -0.019    20.872     6.498
   286   1 H        0.924     0.069     2.100     2.266
   287   6 C        3.758    -0.125    22.942     6.829
   288   1 H        0.925     0.050     2.315     2.379
   289   1 H        0.925     0.058     2.227     2.334
   290   1 H        0.924     0.048     2.351     2.398
   291   6 C        3.808    -0.066    21.756     6.640
   292   1 H        0.924     0.028     2.613     2.528
   293   1 H        0.924     0.057     2.238     2.339
   294   6 C        3.749    -0.113    22.718     6.798
   295   1 H        0.925     0.041     2.436     2.441
   296   1 H        0.925     0.055     2.255     2.348
   297   1 H        0.924     0.017     2.778     2.606
   298   6 C        2.757     0.207    23.608     7.957
   299   8 O        0.856    -0.363    20.959     6.138
   300   7 N        2.636    -0.331    28.510     7.930
   301   1 H        0.860     0.186     1.181     1.702
   302   6 C        3.784     0.040    19.917     6.357
   303   1 H        0.924     0.069     2.101     2.267
   304   6 C        3.816    -0.064    21.714     6.632
   305   1 H        0.924     0.043     2.403     2.424
   306   1 H        0.924     0.043     2.404     2.425
   307   6 C        3.852    -0.015    20.799     6.487
   308   1 H        0.925     0.058     2.221     2.331
   309   6 C        3.761    -0.116    22.770     6.802
   310   1 H        0.924     0.037     2.494     2.470
   311   1 H        0.924     0.028     2.613     2.528
   312   1 H        0.925     0.047     2.352     2.398
   313   6 C        3.762    -0.122    22.875     6.818
   314   1 H        0.923     0.041     2.439     2.442
   315   1 H        0.925     0.050     2.314     2.379
   316   1 H        0.925     0.044     2.391     2.418
   317   6 C        2.766     0.205    23.644     7.963
   318   8 O        0.856    -0.376    21.214     6.175
   319   7 N        2.630    -0.334    28.587     7.941
   320   1 H        0.860     0.171     1.265     1.762
   321   6 C        3.783     0.045    19.832     6.344
   322   1 H        0.924     0.059     2.207     2.323
   323   6 C        3.812    -0.072    21.867     6.656
   324   1 H        0.925     0.049     2.335     2.390
   325   1 H        0.924     0.069     2.098     2.265
   326   6 C        2.957     0.015    27.684     8.630
   327   6 C        2.913    -0.044    29.090     8.844
   328   1 H        0.926     0.062     2.172     2.305
   329   6 C        2.908    -0.040    28.998     8.830
   330   1 H        0.926     0.061     2.193     2.316
   331   6 C        2.918    -0.038    28.955     8.824
   332   1 H        0.925     0.026     2.642     2.542
   333   6 C        2.902    -0.034    28.837     8.805
   334   1 H        0.926     0.005     2.977     2.698
   335   6 C        2.923    -0.039    28.970     8.827
   336   1 H        0.926     0.018     2.759     2.597
   337   6 C        2.760     0.203    23.684     7.970
   338   8 O        0.857    -0.370    21.094     6.158
   339   1 H        0.860     0.202     1.095     1.639
   340   1 H        0.923     0.062     2.174     2.306
   341   1 H        0.860     0.197     1.120     1.658
   342   1 H        0.923     0.057     2.237     2.339
   343   1 H        0.860     0.207     1.073     1.622
   344   1 H        0.923     0.054     2.272     2.357
   345   1 H        0.860     0.169     1.277     1.770
   346   1 H        0.923     0.071     2.075     2.253
   347   1 H        0.860     0.196     1.128     1.664
   348   1 H        0.923     0.059     2.205     2.322
   349   1 H        0.860     0.186     1.182     1.703
   350   1 H        0.923     0.074     2.039     2.233
   351   1 H        0.860     0.199     1.114     1.653
   352   1 H        0.923     0.073     2.048     2.238
   353   1 H        0.860     0.194     1.135     1.669
   354   1 H        0.923     0.076     2.022     2.224
   355   1 H        0.860     0.186     1.178     1.700
   356   1 H        0.923     0.047     2.362     2.403
   357   1 H        0.860     0.184     1.189     1.708
   358   1 H        0.923     0.069     2.101     2.267

 Mol. C6AA /au·bohr⁶  :    1319787.095324
 Mol. C8AA /au·bohr⁸  :   30668128.077599
 Mol. α(0) /au        :       1760.270383


Wiberg/Mayer (AO) data.
largest (>0.10) Wiberg bond orders for each atom

 ---------------------------------------------------------------------------
     #   Z sym  total        # sym  WBO       # sym  WBO       # sym  WBO
 ---------------------------------------------------------------------------
     1   6 C    3.887 --    17 O    1.634     2 N    1.193    21 C    0.950
     2   7 N    3.497 --     1 C    1.193     3 C    1.168    33 H    0.889
                            17 O    0.143
     3   6 C    3.468 --     2 N    1.168    14 C    1.095     5 C    1.025
     4   6 C    3.917 --    15 C    1.013    35 H    0.970    34 H    0.967
                            12 O    0.935
     5   6 C    3.962 --     3 C    1.025     6 C    0.996    36 H    0.945
                            37 H    0.914
     6   6 C    3.979 --    11 C    1.414     7 C    1.404     5 C    0.996
                             9 C    0.110
     7   6 C    3.984 --     8 C    1.448     6 C    1.404    38 H    0.966
                            10 C    0.112
     8   6 C    3.988 --     7 C    1.448     9 C    1.432    39 H    0.966
                            11 C    0.111
     9   6 C    3.989 --    10 C    1.442     8 C    1.432    40 H    0.971
                             6 C    0.110
    10   6 C    3.990 --     9 C    1.442    11 C    1.437    41 H    0.971
                             7 C    0.112
    11   6 C    3.990 --    10 C    1.437     6 C    1.414    42 H    0.970
                             8 C    0.111
    12   8 O    2.238 --    14 C    1.093     4 C    0.935    13 O    0.146
    13   8 O    1.906 --    14 C    1.596    12 O    0.146
    14   6 C    3.863 --    13 O    1.596     3 C    1.095    12 O    1.093
    15   6 C    3.986 --     4 C    1.013    44 H    0.985    45 H    0.983
                            43 H    0.981
    16   6 C    3.965 --    18 C    1.002    22 N    0.993    47 H    0.953
                            46 H    0.941
    17   8 O    1.923 --     1 C    1.634     2 N    0.143
    18   6 C    3.982 --    16 C    1.002    19 S    0.991    48 H    0.974
                            49 H    0.970
    19  16 S    2.093 --    20 C    0.993    18 C    0.991
    20   6 C    3.975 --    19 S    0.993    21 C    0.978    50 H    0.967
                            51 H    0.965
    21   6 C    3.962 --    22 N    0.982    20 C    0.978     1 C    0.950
                            52 H    0.927
    22   7 N    3.182 --    16 C    0.993    21 C    0.982    23 S    0.888
    23  16 S    4.781 --    30 O    1.559    31 O    1.506    22 N    0.888
                            24 C    0.729
    24   6 C    3.941 --    25 C    1.415    29 C    1.391    23 S    0.729
    25   6 C    3.988 --    26 C    1.437    24 C    1.415    53 H    0.965
                            28 C    0.102
    26   6 C    3.985 --    25 C    1.437    27 C    1.403    54 H    0.968
                            29 C    0.108
    27   6 C    3.981 --    26 C    1.403    28 C    1.395    32 C    1.032
    28   6 C    3.981 --    29 C    1.453    27 C    1.395    55 H    0.956
                            25 C    0.102
    29   6 C    3.976 --    28 C    1.453    24 C    1.391    56 H    0.961
                            26 C    0.108
    30   8 O    1.871 --    23 S    1.559    31 O    0.106
    31   8 O    1.818 --    23 S    1.506    30 O    0.106
    32   6 C    3.985 --    27 C    1.032    57 H    0.977    59 H    0.972
                            58 H    0.952
    33   1 H    0.946 --     2 N    0.889
    34   1 H    0.993 --     4 C    0.967
    35   1 H    0.995 --     4 C    0.970
    36   1 H    0.985 --     5 C    0.945
    37   1 H    0.948 --     5 C    0.914
    38   1 H    0.997 --     7 C    0.966
    39   1 H    0.996 --     8 C    0.966
    40   1 H    0.998 --     9 C    0.971
    41   1 H    0.999 --    10 C    0.971
    42   1 H    0.999 --    11 C    0.970
    43   1 H    0.995 --    15 C    0.981
    44   1 H    0.996 --    15 C    0.985
    45   1 H    0.997 --    15 C    0.983
    46   1 H    0.995 --    16 C    0.941
    47   1 H    0.998 --    16 C    0.953
    48   1 H    0.998 --    18 C    0.974
    49   1 H    0.996 --    18 C    0.970
    50   1 H    0.996 --    20 C    0.967
    51   1 H    0.993 --    20 C    0.965
    52   1 H    0.988 --    21 C    0.927
    53   1 H    0.999 --    25 C    0.965
    54   1 H    0.997 --    26 C    0.968
    55   1 H    0.990 --    28 C    0.956
    56   1 H    0.992 --    29 C    0.961
    57   1 H    0.993 --    32 C    0.977
    58   1 H    0.994 --    32 C    0.952
    59   1 H    0.995 --    32 C    0.972
    60   7 N    2.993 --    62 C    1.027    61 H    0.956   339 H    0.943
    61   1 H    0.972 --    60 N    0.956
    62   6 C    3.978 --    60 N    1.027    79 C    0.993    63 H    0.943
                            64 C    0.926
    63   1 H    0.987 --    62 C    0.943
    64   6 C    3.976 --    67 C    1.011    66 H    0.965    65 H    0.963
                            62 C    0.926
    65   1 H    0.992 --    64 C    0.963
    66   1 H    0.994 --    64 C    0.965
    67   6 C    3.981 --    77 C    1.411    68 C    1.393    64 C    1.011
    68   6 C    3.984 --    70 C    1.461    67 C    1.393    69 H    0.968
                            75 C    0.105
    69   1 H    0.999 --    68 C    0.968
    70   6 C    3.985 --    68 C    1.461    72 C    1.349    71 H    0.967
                            77 C    0.105
    71   1 H    1.000 --    70 C    0.967
    72   6 C    3.925 --    75 C    1.370    70 C    1.349    73 O    1.078
    73   8 O    2.086 --    72 C    1.078    74 H    0.820
    74   1 H    0.888 --    73 O    0.820
    75   6 C    3.981 --    77 C    1.442    72 C    1.370    76 H    0.964
                            68 C    0.105
    76   1 H    0.998 --    75 C    0.964
    77   6 C    3.983 --    75 C    1.442    67 C    1.411    78 H    0.965
                            70 C    0.105
    78   1 H    0.995 --    77 C    0.965
    79   6 C    3.881 --    80 O    1.883    62 C    0.993   340 H    0.938
    80   8 O    2.040 --    79 C    1.883
    81   7 N    3.006 --    83 C    1.025    82 H    0.956   341 H    0.946
    82   1 H    0.972 --    81 N    0.956
    83   6 C    3.973 --    81 N    1.025    85 C    0.960    84 H    0.954
                            99 C    0.938
    84   1 H    0.993 --    83 C    0.954
    85   6 C    3.983 --    88 C    1.011    83 C    0.960    86 H    0.960
                            87 H    0.954
    86   1 H    0.992 --    85 C    0.960
    87   1 H    0.996 --    85 C    0.954
    88   6 C    3.981 --    89 C    1.415    97 C    1.401    85 C    1.011
                            93 C    0.111
    89   6 C    3.985 --    91 C    1.437    88 C    1.415    90 H    0.965
                            95 C    0.111
    90   1 H    0.997 --    89 C    0.965
    91   6 C    3.986 --    93 C    1.443    89 C    1.437    92 H    0.964
                            97 C    0.110
    92   1 H    0.995 --    91 C    0.964
    93   6 C    3.986 --    91 C    1.443    95 C    1.426    94 H    0.967
                            88 C    0.111
    94   1 H    0.998 --    93 C    0.967
    95   6 C    3.990 --    97 C    1.452    93 C    1.426    96 H    0.970
                            89 C    0.111
    96   1 H    1.000 --    95 C    0.970
    97   6 C    3.990 --    95 C    1.452    88 C    1.401    98 H    0.964
                            91 C    0.110
    98   1 H    1.000 --    97 C    0.964
    99   6 C    3.920 --   100 O    1.612   101 N    1.289    83 C    0.938
   100   8 O    1.908 --    99 C    1.612   101 N    0.186
   101   7 N    3.466 --    99 C    1.289   103 C    0.993   102 H    0.918
                           100 O    0.186
   102   1 H    0.956 --   101 N    0.918
   103   6 C    3.972 --   111 C    0.993   101 N    0.993   105 C    0.944
                           104 H    0.933
   104   1 H    0.990 --   103 C    0.933
   105   6 C    3.985 --   106 H    0.974   107 H    0.946   103 C    0.944
                           108 C    0.940
   106   1 H    0.999 --   105 C    0.974
   107   1 H    0.997 --   105 C    0.946
   108   6 C    3.937 --   110 O    1.513   109 O    1.449   105 C    0.940
   109   8 O    1.798 --   108 C    1.449   110 O    0.214
   110   8 O    1.808 --   108 C    1.513   109 O    0.214
   111   6 C    3.894 --   112 O    1.894   103 C    0.993   342 H    0.940
   112   8 O    2.047 --   111 C    1.894
   113   7 N    2.997 --   115 C    1.032   114 H    0.950   343 H    0.942
   114   1 H    0.965 --   113 N    0.950
   115   6 C    3.982 --   113 N    1.032   131 C    0.971   116 H    0.961
                           117 C    0.930
   116   1 H    0.996 --   115 C    0.961
   117   6 C    3.980 --   120 C    1.005   118 H    0.970   119 H    0.960
                           115 C    0.930
   118   1 H    0.997 --   117 C    0.970
   119   1 H    0.995 --   117 C    0.960
   120   6 C    3.984 --   129 C    1.423   121 C    1.400   117 C    1.005
                           125 C    0.109
   121   6 C    3.988 --   123 C    1.456   120 C    1.400   122 H    0.967
                           127 C    0.111
   122   1 H    0.999 --   121 C    0.967
   123   6 C    3.990 --   121 C    1.456   125 C    1.423   124 H    0.969
                           129 C    0.111
   124   1 H    0.998 --   123 C    0.969
   125   6 C    3.987 --   127 C    1.449   123 C    1.423   126 H    0.971
                           120 C    0.109
   126   1 H    0.998 --   125 C    0.971
   127   6 C    3.990 --   125 C    1.449   129 C    1.430   128 H    0.972
                           121 C    0.111
   128   1 H    0.999 --   127 C    0.972
   129   6 C    3.986 --   127 C    1.430   120 C    1.423   130 H    0.969
                           123 C    0.111
   130   1 H    0.998 --   129 C    0.969
   131   6 C    3.878 --   132 O    1.904   115 C    0.971   344 H    0.937
   132   8 O    2.052 --   131 C    1.904
   133   7 N    3.018 --   135 C    1.021   345 H    0.956   134 H    0.955
   134   1 H    0.967 --   133 N    0.955
   135   6 C    3.976 --   133 N    1.021   137 C    0.978   148 C    0.944
                           136 H    0.931
   136   1 H    0.994 --   135 C    0.931
   137   6 C    3.986 --   140 C    1.000   135 C    0.978   139 H    0.975
                           138 H    0.966
   138   1 H    0.996 --   137 C    0.966
   139   1 H    0.998 --   137 C    0.975
   140   6 C    3.991 --   137 C    1.000   141 H    0.972   143 C    0.970
                           142 H    0.952
   141   1 H    0.995 --   140 C    0.972
   142   1 H    0.994 --   140 C    0.952
   143   6 C    3.942 --   144 O    1.614   145 N    1.331   140 C    0.970
   144   8 O    1.909 --   143 C    1.614   145 N    0.197
   145   7 N    3.398 --   143 C    1.331   146 H    0.919   147 H    0.913
                           144 O    0.197
   146   1 H    0.942 --   145 N    0.919
   147   1 H    0.935 --   145 N    0.913
   148   6 C    3.938 --   149 O    1.619   150 N    1.286   135 C    0.944
   149   8 O    1.928 --   148 C    1.619   150 N    0.186
   150   7 N    3.462 --   148 C    1.286   152 C    0.986   151 H    0.914
                           149 O    0.186
   151   1 H    0.959 --   150 N    0.914
   152   6 C    3.964 --   150 N    0.986   154 C    0.975   163 C    0.942
                           153 H    0.931
   153   1 H    0.991 --   152 C    0.931
   154   6 C    3.985 --   157 C    1.004   155 H    0.977   152 C    0.975
                           156 H    0.964
   155   1 H    0.998 --   154 C    0.977
   156   1 H    0.994 --   154 C    0.964
   157   6 C    3.983 --   154 C    1.004   159 H    0.976   158 H    0.964
                           160 C    0.928
   158   1 H    0.999 --   157 C    0.964
   159   1 H    0.999 --   157 C    0.976
   160   6 C    3.929 --   161 O    1.495   162 O    1.484   157 C    0.928
   161   8 O    1.780 --   160 C    1.495   162 O    0.214
   162   8 O    1.766 --   160 C    1.484   161 O    0.214
   163   6 C    3.952 --   164 O    1.629   165 N    1.302   152 C    0.942
   164   8 O    1.946 --   163 C    1.629   165 N    0.196
   165   7 N    3.473 --   163 C    1.302   167 C    0.983   166 H    0.914
                           164 O    0.196
   166   1 H    0.958 --   165 N    0.914
   167   6 C    3.965 --   165 N    0.983   169 C    0.959   179 C    0.945
                           168 H    0.945
   168   1 H    0.996 --   167 C    0.945
   169   6 C    3.991 --   171 C    1.007   175 C    1.007   170 H    0.961
                           167 C    0.959
   170   1 H    0.997 --   169 C    0.961
   171   6 C    3.994 --   169 C    1.007   173 H    0.984   172 H    0.983
                           174 H    0.982
   172   1 H    0.998 --   171 C    0.983
   173   1 H    0.999 --   171 C    0.984
   174   1 H    0.997 --   171 C    0.982
   175   6 C    3.991 --   169 C    1.007   178 H    0.984   177 H    0.980
                           176 H    0.979
   176   1 H    0.998 --   175 C    0.979
   177   1 H    0.997 --   175 C    0.980
   178   1 H    0.998 --   175 C    0.984
   179   6 C    3.954 --   180 O    1.601   181 N    1.329   167 C    0.945
   180   8 O    1.921 --   179 C    1.601   181 N    0.197
   181   7 N    3.483 --   179 C    1.329   183 C    0.975   182 H    0.889
                           180 O    0.197
   182   1 H    0.949 --   181 N    0.889
   183   6 C    3.961 --   198 C    0.991   181 N    0.975   185 C    0.942
                           184 H    0.937
   184   1 H    0.991 --   183 C    0.937
   185   6 C    3.979 --   187 C    1.001   191 C    0.995   186 H    0.962
                           183 C    0.942
   186   1 H    0.995 --   185 C    0.962
   187   6 C    3.987 --   185 C    1.001   190 H    0.985   189 H    0.978
                           188 H    0.978
   188   1 H    0.997 --   187 C    0.978
   189   1 H    0.994 --   187 C    0.978
   190   1 H    0.998 --   187 C    0.985
   191   6 C    3.994 --   194 C    1.016   185 C    0.995   192 H    0.971
                           193 H    0.971
   192   1 H    0.997 --   191 C    0.971
   193   1 H    0.998 --   191 C    0.971
   194   6 C    3.994 --   191 C    1.016   197 H    0.988   196 H    0.985
                           195 H    0.983
   195   1 H    0.997 --   194 C    0.983
   196   1 H    0.997 --   194 C    0.985
   197   1 H    0.999 --   194 C    0.988
   198   6 C    3.891 --   199 O    1.855   183 C    0.991   346 H    0.936
   199   8 O    2.055 --   198 C    1.855
   200   7 N    3.017 --   202 C    1.028   347 H    0.947   201 H    0.910
   201   1 H    0.962 --   200 N    0.910
   202   6 C    3.974 --   200 N    1.028   222 C    0.974   203 H    0.947
                           204 C    0.946
   203   1 H    0.990 --   202 C    0.947
   204   6 C    3.980 --   207 C    1.015   205 H    0.961   206 H    0.949
                           202 C    0.946
   205   1 H    0.997 --   204 C    0.961
   206   1 H    0.993 --   204 C    0.949
   207   6 C    3.950 --   208 C    1.588   221 C    1.174   204 C    1.015
   208   6 C    3.934 --   207 C    1.588   210 N    1.198   209 H    0.959
   209   1 H    0.992 --   208 C    0.959
   210   7 N    3.526 --   208 C    1.198   212 C    1.173   211 H    0.938
   211   1 H    0.968 --   210 N    0.938
   212   6 C    3.963 --   213 C    1.346   221 C    1.249   210 N    1.173
   213   6 C    3.976 --   215 C    1.465   212 C    1.346   214 H    0.968
                           219 C    0.110
   214   1 H    0.999 --   213 C    0.968
   215   6 C    3.984 --   213 C    1.465   217 C    1.393   216 H    0.972
   216   1 H    0.999 --   215 C    0.972
   217   6 C    3.981 --   219 C    1.471   215 C    1.393   218 H    0.970
   218   1 H    0.999 --   217 C    0.970
   219   6 C    3.974 --   217 C    1.471   221 C    1.351   220 H    0.967
                           213 C    0.110
   220   1 H    0.999 --   219 C    0.967
   221   6 C    3.979 --   219 C    1.351   212 C    1.249   207 C    1.174
   222   6 C    3.865 --   223 O    1.873   202 C    0.974   348 H    0.936
   223   8 O    2.026 --   222 C    1.873
   224   7 N    2.997 --   226 C    1.036   349 H    0.952   225 H    0.948
   225   1 H    0.964 --   224 N    0.948
   226   6 C    3.973 --   224 N    1.036   243 C    0.981   228 C    0.935
                           227 H    0.928
   227   1 H    0.988 --   226 C    0.928
   228   6 C    3.981 --   231 C    1.008   230 H    0.970   229 H    0.962
                           226 C    0.935
   229   1 H    0.994 --   228 C    0.962
   230   1 H    0.995 --   228 C    0.970
   231   6 C    3.975 --   232 C    1.412   241 C    1.385   228 C    1.008
   232   6 C    3.982 --   234 C    1.439   231 C    1.412   233 H    0.953
                           239 C    0.104
   233   1 H    0.996 --   232 C    0.953
   234   6 C    3.974 --   232 C    1.439   236 C    1.373   235 H    0.966
                           241 C    0.104
   235   1 H    0.997 --   234 C    0.966
   236   6 C    3.915 --   234 C    1.373   239 C    1.348   237 O    1.063
   237   8 O    2.065 --   236 C    1.063   238 H    0.830
   238   1 H    0.892 --   237 O    0.830
   239   6 C    3.983 --   241 C    1.469   236 C    1.348   240 H    0.969
                           232 C    0.104
   240   1 H    0.998 --   239 C    0.969
   241   6 C    3.983 --   239 C    1.469   231 C    1.385   242 H    0.967
                           234 C    0.104
   242   1 H    0.997 --   241 C    0.967
   243   6 C    3.860 --   244 O    1.869   226 C    0.981   350 H    0.935
   244   8 O    2.017 --   243 C    1.869
   245   7 N    2.984 --   247 C    1.026   351 H    0.944   246 H    0.916
   246   1 H    0.959 --   245 N    0.916
   247   6 C    3.974 --   245 N    1.026   260 C    0.974   248 H    0.960
                           249 C    0.931
   248   1 H    0.991 --   247 C    0.960
   249   6 C    3.967 --   252 C    1.013   250 H    0.967   251 H    0.954
                           247 C    0.931
   250   1 H    0.995 --   249 C    0.967
   251   1 H    0.994 --   249 C    0.954
   252   6 C    3.970 --   258 C    1.570   253 N    1.259   249 C    1.013
   253   7 N    2.992 --   254 C    1.534   252 C    1.259   256 N    0.107
   254   6 C    3.957 --   253 N    1.534   256 N    1.287   255 H    0.964
                           258 C    0.115
   255   1 H    0.998 --   254 C    0.964
   256   7 N    3.590 --   254 C    1.287   258 C    1.200   257 H    0.925
                           253 N    0.107
   257   1 H    0.954 --   256 N    0.925
   258   6 C    3.932 --   252 C    1.570   256 N    1.200   259 H    0.962
                           254 C    0.115
   259   1 H    0.997 --   258 C    0.962
   260   6 C    3.869 --   261 O    1.896   247 C    0.974   352 H    0.938
   261   8 O    2.063 --   260 C    1.896
   262   7 N    2.975 --   264 C    1.019   353 H    0.947   263 H    0.942
   263   1 H    0.966 --   262 N    0.942
   264   6 C    3.971 --   262 N    1.019   265 H    0.950   266 C    0.948
                           279 C    0.947
   265   1 H    0.990 --   264 C    0.950
   266   6 C    3.975 --   268 C    1.003   272 C    0.997   267 H    0.961
                           264 C    0.948
   267   1 H    0.996 --   266 C    0.961
   268   6 C    3.991 --   266 C    1.003   271 H    0.982   270 H    0.978
                           269 H    0.978
   269   1 H    0.996 --   268 C    0.978
   270   1 H    0.997 --   268 C    0.978
   271   1 H    0.998 --   268 C    0.982
   272   6 C    3.993 --   275 C    1.017   266 C    0.997   273 H    0.973
                           274 H    0.968
   273   1 H    0.998 --   272 C    0.973
   274   1 H    0.999 --   272 C    0.968
   275   6 C    3.991 --   272 C    1.017   277 H    0.986   276 H    0.981
                           278 H    0.979
   276   1 H    0.999 --   275 C    0.981
   277   1 H    0.999 --   275 C    0.986
   278   1 H    0.998 --   275 C    0.979
   279   6 C    3.943 --   280 O    1.613   281 N    1.308   264 C    0.947
   280   8 O    1.925 --   279 C    1.613   281 N    0.196
   281   7 N    3.484 --   279 C    1.308   283 C    0.976   282 H    0.896
                           280 O    0.196
   282   1 H    0.945 --   281 N    0.896
   283   6 C    3.959 --   281 N    0.976   298 C    0.975   285 C    0.949
                           284 H    0.947
   284   1 H    0.991 --   283 C    0.947
   285   6 C    3.985 --   287 C    1.004   291 C    0.996   286 H    0.958
                           283 C    0.949
   286   1 H    0.995 --   285 C    0.958
   287   6 C    3.988 --   285 C    1.004   288 H    0.983   290 H    0.981
                           289 H    0.972
   288   1 H    0.997 --   287 C    0.983
   289   1 H    0.996 --   287 C    0.972
   290   1 H    0.998 --   287 C    0.981
   291   6 C    3.994 --   294 C    1.013   285 C    0.996   293 H    0.972
                           292 H    0.970
   292   1 H    0.999 --   291 C    0.970
   293   1 H    0.997 --   291 C    0.972
   294   6 C    3.986 --   291 C    1.013   295 H    0.985   297 H    0.985
                           296 H    0.981
   295   1 H    0.998 --   294 C    0.985
   296   1 H    0.997 --   294 C    0.981
   297   1 H    0.999 --   294 C    0.985
   298   6 C    3.879 --   299 O    1.888   283 C    0.975   354 H    0.939
   299   8 O    2.067 --   298 C    1.888
   300   7 N    2.999 --   302 C    1.026   355 H    0.953   301 H    0.949
   301   1 H    0.965 --   300 N    0.949
   302   6 C    3.978 --   300 N    1.026   317 C    0.974   303 H    0.953
                           304 C    0.947
   303   1 H    0.995 --   302 C    0.953
   304   6 C    3.977 --   307 C    0.987   305 H    0.971   306 H    0.971
                           302 C    0.947
   305   1 H    0.998 --   304 C    0.971
   306   1 H    0.998 --   304 C    0.971
   307   6 C    3.991 --   313 C    1.010   309 C    1.006   304 C    0.987
                           308 H    0.965
   308   1 H    0.996 --   307 C    0.965
   309   6 C    3.990 --   307 C    1.006   310 H    0.985   311 H    0.985
                           312 H    0.971
   310   1 H    0.999 --   309 C    0.985
   311   1 H    0.999 --   309 C    0.985
   312   1 H    0.996 --   309 C    0.971
   313   6 C    3.994 --   307 C    1.010   314 H    0.984   316 H    0.980
                           315 H    0.977
   314   1 H    0.998 --   313 C    0.984
   315   1 H    0.997 --   313 C    0.977
   316   1 H    0.998 --   313 C    0.980
   317   6 C    3.873 --   318 O    1.892   302 C    0.974   356 H    0.935
   318   8 O    2.047 --   317 C    1.892
   319   7 N    3.016 --   321 C    1.034   320 H    0.957   357 H    0.950
   320   1 H    0.971 --   319 N    0.957
   321   6 C    3.983 --   319 N    1.034   337 C    0.970   322 H    0.960
                           323 C    0.931
   322   1 H    0.996 --   321 C    0.960
   323   6 C    3.983 --   326 C    1.007   324 H    0.967   325 H    0.964
                           321 C    0.931
   324   1 H    0.997 --   323 C    0.967
   325   1 H    0.995 --   323 C    0.964
   326   6 C    3.986 --   327 C    1.410   335 C    1.408   323 C    1.007
                           331 C    0.107
   327   6 C    3.987 --   329 C    1.440   326 C    1.410   328 H    0.967
                           333 C    0.112
   328   1 H    0.996 --   327 C    0.967
   329   6 C    3.986 --   327 C    1.440   331 C    1.436   330 H    0.967
                           335 C    0.111
   330   1 H    0.996 --   329 C    0.967
   331   6 C    3.986 --   329 C    1.436   333 C    1.434   332 H    0.968
Note: The following floating-point exceptions are signalling: IEEE_UNDERFLOW_FLAG IEEE_DENORMAL
normal termination of xtb
                           326 C    0.107
   332   1 H    0.999 --   331 C    0.968
   333   6 C    3.991 --   335 C    1.443   331 C    1.434   334 H    0.968
                           327 C    0.112
   334   1 H    1.000 --   333 C    0.968
   335   6 C    3.988 --   333 C    1.443   326 C    1.408   336 H    0.970
                           329 C    0.111
   336   1 H    1.000 --   335 C    0.970
   337   6 C    3.877 --   338 O    1.902   321 C    0.970   358 H    0.936
   338   8 O    2.045 --   337 C    1.902
   339   1 H    0.959 --    60 N    0.943
   340   1 H    0.995 --    79 C    0.938
   341   1 H    0.961 --    81 N    0.946
   342   1 H    0.996 --   111 C    0.940
   343   1 H    0.957 --   113 N    0.942
   344   1 H    0.995 --   131 C    0.937
   345   1 H    0.971 --   133 N    0.956
   346   1 H    0.994 --   198 C    0.936
   347   1 H    0.961 --   200 N    0.947
   348   1 H    0.993 --   222 C    0.936
   349   1 H    0.965 --   224 N    0.952
   350   1 H    0.990 --   243 C    0.935
   351   1 H    0.960 --   245 N    0.944
   352   1 H    0.992 --   260 C    0.938
   353   1 H    0.962 --   262 N    0.947
   354   1 H    0.994 --   298 C    0.939
   355   1 H    0.965 --   300 N    0.953
   356   1 H    0.993 --   317 C    0.935
   357   1 H    0.966 --   319 N    0.950
   358   1 H    0.993 --   337 C    0.936
 ---------------------------------------------------------------------------

Topologies differ in total number of bonds
Writing topology from bond orders to xtbtopo.mol

molecular dipole:
                 x           y           z       tot (Debye)
 q only:      -49.234     -63.146     -86.284
   full:      -49.488     -64.751     -85.070     299.437
molecular quadrupole (traceless):
                xx          xy          yy          xz          yz          zz
 q only:     3669.601   -4314.618     347.412   -6754.726   -8245.565   -4017.013
  q+dip:     3621.884   -4518.506      96.833   -6652.798   -8300.134   -3718.716
   full:     3627.695   -4522.064      93.746   -6652.735   -8295.424   -3721.441


           -------------------------------------------------
          | TOTAL ENERGY             -543.513270565051 Eh   |
          | GRADIENT NORM               0.357871372954 Eh/α |
          | HOMO-LUMO GAP               0.295412368537 eV   |
           -------------------------------------------------

------------------------------------------------------------------------
 * finished run on 2026/01/05 at 09:06:13.051     
------------------------------------------------------------------------
 total:
 * wall-time:     0 d,  0 h,  0 min,  4.558 sec
 *  cpu-time:     0 d,  0 h,  1 min,  5.329 sec
 * ratio c/w:    14.332 speedup
 SCF:
 * wall-time:     0 d,  0 h,  0 min,  4.389 sec
 *  cpu-time:     0 d,  0 h,  1 min,  3.479 sec
 * ratio c/w:    14.462 speedup

