      -----------------------------------------------------------      
     |                   =====================                   |     
     |                           x T B                           |     
     |                   =====================                   |     
     |                         S. Grimme                         |     
     |          Mulliken Center for Theoretical Chemistry        |     
     |                    University of Bonn                     |     
      -----------------------------------------------------------      

   * xtb version 6.7.1 (edcfbbe) compiled by 'conda@c0858423619e' on 2025-09-04

   xtb is free software: you can redistribute it and/or modify it under
   the terms of the GNU Lesser General Public License as published by
   the Free Software Foundation, either version 3 of the License, or
   (at your option) any later version.
   
   xtb is distributed in the hope that it will be useful,
   but WITHOUT ANY WARRANTY; without even the implied warranty of
   MERCHANTABILITY or FITNESS FOR A PARTICULAR PURPOSE.  See the
   GNU Lesser General Public License for more details.
   
   Cite this work as:
   * C. Bannwarth, E. Caldeweyher, S. Ehlert, A. Hansen, P. Pracht,
     J. Seibert, S. Spicher, S. Grimme, WIREs Comput. Mol. Sci., 2020, 11,
     e01493. DOI: 10.1002/wcms.1493
   
   for GFN2-xTB:
   * C. Bannwarth, S. Ehlert and S. Grimme., J. Chem. Theory Comput., 2019,
     15, 1652-1671. DOI: 10.1021/acs.jctc.8b01176
   for GFN1-xTB:
   * S. Grimme, C. Bannwarth, P. Shushkov, J. Chem. Theory Comput., 2017,
     13, 1989-2009. DOI: 10.1021/acs.jctc.7b00118
   for GFN0-xTB:
   * P. Pracht, E. Caldeweyher, S. Ehlert, S. Grimme, ChemRxiv, 2019, preprint.
     DOI: 10.26434/chemrxiv.8326202.v1
   for GFN-FF:
   * S. Spicher and S. Grimme, Angew. Chem. Int. Ed., 2020, 59, 15665-15673.
     DOI: 10.1002/anie.202004239
   
   for ALPB and GBSA implicit solvation:
   * S. Ehlert, M. Stahn, S. Spicher, S. Grimme, J. Chem. Theory Comput.,
     2021, 17, 4250-4261. DOI: 10.1021/acs.jctc.1c00471
   
   for ddCOSMO and CPCM-X implicit solvation:
   * M. Stahn, S. Ehlert, S. Grimme, J. Phys. Chem. A,
     2023, XX, XXXX-XXXX. DOI: 10.1021/acs.jpca.3c04382
   
   for DFT-D4:
   * E. Caldeweyher, C. Bannwarth and S. Grimme, J. Chem. Phys., 2017,
     147, 034112. DOI: 10.1063/1.4993215
   * E. Caldeweyher, S. Ehlert, A. Hansen, H. Neugebauer, S. Spicher,
     C. Bannwarth and S. Grimme, J. Chem. Phys., 2019, 150, 154122.
     DOI: 10.1063/1.5090222
   * E. Caldeweyher, J.-M. Mewes, S. Ehlert and S. Grimme, Phys. Chem. Chem. Phys.
     2020, 22, 8499-8512. DOI: 10.1039/D0CP00502A
   
   for sTDA-xTB:
   * S. Grimme and C. Bannwarth, J. Chem. Phys., 2016, 145, 054103.
     DOI: 10.1063/1.4959605
   
   in the mass-spec context:
   * V. Asgeirsson, C. Bauer and S. Grimme, Chem. Sci., 2017, 8, 4879.
     DOI: 10.1039/c7sc00601b
   * J. Koopman and S. Grimme, ACS Omega 2019, 4, 12, 15120-15133.
     DOI: 10.1021/acsomega.9b02011
   
   for metadynamics refer to:
   * S. Grimme, J. Chem. Theory Comput., 2019, 155, 2847-2862
     DOI: 10.1021/acs.jctc.9b00143
   
   for SPH calculations refer to:
   * S. Spicher and S. Grimme, J. Chem. Theory Comput., 2021, 17, 1701-1714
     DOI: 10.1021/acs.jctc.0c01306
   
   for ONIOM refer to:
   * C. Plett, A. Katbashev, S. Ehlert, S. Grimme, M. Bursch,
     Phys. Chem. Chem. Phys., 2023, 25, 17860-17868. DOI: 10.1039/D3CP02178E
   
   for DIPRO refer to:
   * J. Kohn, N. Gildemeister, S. Grimme, D. Fazzi, A. Hansen,
     J. Chem. Phys., 2023, just accepted.
   
   for PTB refer to:
   * S. Grimme, M. Mueller, A. Hansen, J. Chem. Phys., 2023, 158, 124111.
     DOI: 10.1063/5.0137838
   
   with help from (in alphabetical order)
   P. Atkinson, C. Bannwarth, F. Bohle, G. Brandenburg, E. Caldeweyher
   M. Checinski, S. Dohm, S. Ehlert, S. Ehrlich, I. Gerasimov, C. Hölzer
   A. Katbashev, J. Kohn, J. Koopman, C. Lavigne, S. Lehtola, F. März, M. Müller,
   F. Musil, H. Neugebauer, J. Pisarek, C. Plett, P. Pracht, F. Pultar,
   J. Seibert, P. Shushkov, S. Spicher, M. Stahn, M. Steiner, T. Strunk,
   J. Stückrath, T. Rose, and J. Unsleber
   
 * started run on 2026/01/05 at 09:06:43.166     
   ID    Z sym.   atoms
    1    6 C      1, 3-11, 14-16, 18, 20, 21, 24-29, 32, 62, 64, 67, 68, 70,
                  72, 75, 77, 79, 83, 85, 88, 89, 91, 93, 95, 97, 99, 103,
                  105, 108, 111, 115, 117, 120, 123, 128, 135, 139, 141, 144,
                  145, 147, 149, 151, 153, 155, 159, 161, 164, 167, 170, 174,
                  176, 179, 180, 182, 184, 187, 189, 191, 195, 197, 200, 202,
                  206, 208, 212, 214, 216, 220, 223, 227
    2    7 N      2, 22, 60, 81, 101, 113, 126, 129, 132, 137, 157, 172, 193,
                  201, 204, 210
    3    8 O      12, 13, 17, 30, 31, 73, 80, 100, 109, 110, 112, 136, 156,
                  168, 169, 171, 185, 192, 209, 228
    4   16 S      19, 23
    5    1 H      33-59, 61, 63, 65, 66, 69, 71, 74, 76, 78, 82, 84, 86, 87,
                  90, 92, 94, 96, 98, 102, 104, 106, 107, 114, 116, 118, 119,
                  121, 122, 124, 125, 127, 130, 131, 133, 134, 138, 140, 142,
                  143, 146, 148, 150, 152, 154, 158, 160, 162, 163, 165, 166,
                  173, 175, 177, 178, 181, 183, 186, 188, 190, 194, 196, 198,
                  199, 203, 205, 207, 211, 213, 215, 217-219, 221, 222,
                  224-226, 229-244

           -------------------------------------------------
          |                Calculation Setup                |
           -------------------------------------------------

          program call               : xtb /home/antonio_mesquita/Documentos/gmx_ISA_project/testes_arquivos_primeiros/gmx_ISA_testes/testes_qm_xtb/QM_analysis/QM_FRAMES_CAPPED/frame_200ps/complex_capped_200ps.xyz --gfn 2 --alpb water --chrg 0 --etemp 1500 --cycles 1000
          coordinate file            : /home/antonio_mesquita/Documentos/gmx_ISA_project/testes_arquivos_primeiros/gmx_ISA_testes/testes_qm_xtb/QM_analysis/QM_FRAMES_CAPPED/frame_200ps/complex_capped_200ps.xyz
          omp threads                :                    16


molecular fragmentation (1/2 indicates fragments):
111111111111111111111111111111111111111111111111111111111112222222222222
222222222222222222222222222222222222222222222222222222222222222222222222
222222222222222222222222222222222222222222222222222222222222222222222222
2222222222222222222222222222
# atoms in fragment 1/2:    59   185
 fragment masses (1/2) :      475.60     1286.50
CMA distance (Bohr)    :  14.142
constraining FC (au)   :  0.0500

           -------------------------------------------------
          |                 G F N 2 - x T B                 |
           -------------------------------------------------

        Reference                      10.1021/acs.jctc.8b01176
      * Hamiltonian:
        H0-scaling (s, p, d)           1.850000    2.230000    2.230000
        zeta-weighting                 0.500000
      * Dispersion:
        s8                             2.700000
        a1                             0.520000
        a2                             5.000000
        s9                             5.000000
      * Repulsion:
        kExp                           1.500000    1.000000
        rExp                           1.000000
      * Coulomb:
        alpha                          2.000000
        third order                    shell-resolved
        anisotropic                    true
        a3                             3.000000
        a5                             4.000000
        cn-shift                       1.200000
        cn-exp                         4.000000
        max-rad                        5.000000

      * Solvation model:               ALPB
        Solvent                        water
        Parameter file                 internal GFN2-xTB/ALPB
        Dielectric constant                8.0200E+01
        Reference state                gsolv [1 M gas/solution]
        Free energy shift                  1.0808E-03 Eh       6.7819E-01 kcal/mol
        Temperature                        2.9815E+02 K
        Density                            1.0000E+00 kg/L
        Solvent mass                       1.8000E+01 g/mol
        Interaction kernel             P16
        Born radius scaling (c1)           1.4744E+00
        Born radii integrator          GBOBC
        Born offset                        0.0000E+00 a0       0.0000E+00 AA
        H-bond correction              true
        Ion screening                  false
        Surface tension                    1.0000E-05 Eh       1.5569E+01 dyn/cm
        Grid points                               230 per atom

          ...................................................
          :                      SETUP                      :
          :.................................................:
          :  # basis functions                 628          :
          :  # atomic orbitals                 626          :
          :  # shells                          370          :
          :  # electrons                       676          :
          :  max. iterations                   250          :
          :  Hamiltonian                  GFN2-xTB          :
          :  restarted?                      false          :
          :  GBSA solvation                   true          :
          :  PC potential                    false          :
          :  electronic temp.         1500.0000000     K    :
          :  accuracy                    1.0000000          :
          :  -> integral cutoff          0.2500000E+02      :
          :  -> integral neglect         0.1000000E-07      :
          :  -> SCF convergence          0.1000000E-05 Eh   :
          :  -> wf. convergence          0.1000000E-03 e    :
          :  Broyden damping             0.4000000          :
          :  net charge                          0          :
          :  unpaired electrons                  0          :
          ...................................................

 iter      E             dE          RMSdq      gap      omega  full diag
   1   -383.4607392 -0.383461E+03  0.466E+00    0.08       0.0  T
   2   -383.9639542 -0.503215E+00  0.266E+00    1.44       1.0  T
   3   -383.8579668  0.105987E+00  0.177E+00    0.04       1.0  T
   4   -384.1349315 -0.276965E+00  0.803E-01    0.63       1.0  T
   5   -384.1429612 -0.802970E-02  0.676E-01    0.10       1.0  T
   6   -384.2514006 -0.108439E+00  0.254E-01    0.20       1.0  T
   7   -384.2493217  0.207883E-02  0.241E-01    0.20       1.0  T
   8   -384.2607490 -0.114273E-01  0.112E-01    0.31       1.0  T
   9   -384.2616222 -0.873134E-03  0.838E-02    0.27       1.0  T
  10   -384.2629230 -0.130086E-02  0.311E-02    0.32       1.0  T
  11   -384.2629468 -0.237387E-04  0.251E-02    0.29       1.0  T
  12   -384.2630602 -0.113461E-03  0.123E-02    0.30       1.0  T
  13   -384.2630813 -0.210453E-04  0.602E-03    0.30       1.1  T
  14   -384.2630863 -0.499194E-05  0.298E-03    0.30       2.1  T
  15   -384.2630863 -0.351967E-07  0.243E-03    0.30       2.6  T
  16   -384.2630872 -0.930464E-06  0.116E-03    0.30       5.5  T
  17   -384.2630874 -0.211716E-06  0.607E-04    0.30      10.5  T
  18   -384.2630875 -0.602154E-07  0.263E-04    0.30      24.4  T

   *** convergence criteria satisfied after 18 iterations ***

         #    Occupation            Energy/Eh            Energy/eV
      -------------------------------------------------------------
         1        2.0000           -0.7914526             -21.5365
       ...           ...                  ...                  ...
       332        1.8955           -0.3605508              -9.8111
       333        1.8918           -0.3603740              -9.8063
       334        1.8888           -0.3602381              -9.8026
       335        1.8842           -0.3600320              -9.7970
       336        1.8833           -0.3599956              -9.7960
       337        1.8521           -0.3587883              -9.7631
       338        1.8259           -0.3579482              -9.7403 (HOMO)
       339        1.0070           -0.3468495              -9.4383 (LUMO)
       340        0.0000           -0.2922881              -7.9536
       341        0.0000           -0.2879852              -7.8365
       342        0.0000           -0.2866111              -7.7991
       343        0.0000           -0.2861722              -7.7871
       ...           ...                  ...                  ...
       626                          1.0699762              29.1155
      -------------------------------------------------------------
                  HL-Gap            0.0110987 Eh            0.3020 eV
             Fermi-level           -0.3467831 Eh           -9.4364 eV

 SCC (total)                   0 d,  0 h,  0 min,  2.197 sec
 SCC setup                      ...        0 min,  0.015 sec (  0.681%)
 Dispersion                     ...        0 min,  0.026 sec (  1.185%)
 classical contributions        ...        0 min,  0.003 sec (  0.153%)
 integral evaluation            ...        0 min,  0.062 sec (  2.808%)
 iterations                     ...        0 min,  1.864 sec ( 84.873%)
 molecular gradient             ...        0 min,  0.218 sec (  9.946%)
 printout                       ...        0 min,  0.008 sec (  0.352%)

         :::::::::::::::::::::::::::::::::::::::::::::::::::::
         ::                     SUMMARY                     ::
         :::::::::::::::::::::::::::::::::::::::::::::::::::::
         :: total energy            -379.543115616108 Eh    ::
         :: total w/o Gsasa/hb      -379.510602471579 Eh    ::
         :: gradient norm              0.294447885258 Eh/a0 ::
         :: HOMO-LUMO gap              0.302010494685 eV    ::
         ::.................................................::
         :: SCC energy              -384.251944934050 Eh    ::
         :: -> isotropic ES            1.025535282576 Eh    ::
         :: -> anisotropic ES         -0.017714125123 Eh    ::
         :: -> anisotropic XC          0.166729869898 Eh    ::
         :: -> dispersion             -0.269675045812 Eh    ::
         :: -> Gsolv                  -0.292797286692 Eh    ::
         ::    -> Gelec               -0.260284142162 Eh    ::
         ::    -> Gsasa                0.010674590108 Eh    ::
         ::    -> Ghb                 -0.044268494335 Eh    ::
         ::    -> Gshift               0.001080759698 Eh    ::
         :: repulsion energy           4.708829317942 Eh    ::
         :: add. restraining           0.000000000000 Eh    ::
         :: total charge              -0.000000000000 e     ::
         :::::::::::::::::::::::::::::::::::::::::::::::::::::

           -------------------------------------------------
          |                Property Printout                |
           -------------------------------------------------

    * Orbital Energies and Occupations

         #    Occupation            Energy/Eh            Energy/eV
      -------------------------------------------------------------
         1        2.0000           -0.7914526             -21.5365
       ...           ...                  ...                  ...
       326        1.9985           -0.3809032             -10.3649
       327        1.9972           -0.3780096             -10.2862
       328        1.9962           -0.3765474             -10.2464
       329        1.9932           -0.3737565             -10.1704
       330        1.9766           -0.3678672             -10.0102
       331        1.9140           -0.3615183              -9.8374
       332        1.8955           -0.3605508              -9.8111
       333        1.8918           -0.3603740              -9.8063
       334        1.8888           -0.3602381              -9.8026
       335        1.8842           -0.3600320              -9.7970
       336        1.8833           -0.3599956              -9.7960
       337        1.8521           -0.3587883              -9.7631
       338        1.8259           -0.3579482              -9.7403 (HOMO)
       339        1.0070           -0.3468495              -9.4383 (LUMO)
       340        0.0000           -0.2922881              -7.9536
       341        0.0000           -0.2879852              -7.8365
       342        0.0000           -0.2866111              -7.7991
       343        0.0000           -0.2861722              -7.7871
       344        0.0000           -0.2857548              -7.7758
       345        0.0000           -0.2845221              -7.7422
       346        0.0000           -0.2836959              -7.7198
       347        0.0000           -0.2794108              -7.6032
       348                         -0.2631119              -7.1596
       349                         -0.2500853              -6.8052
       ...                                ...                  ...
       626                          1.0699762              29.1155
      -------------------------------------------------------------
                  HL-Gap            0.0110987 Eh            0.3020 eV
             Fermi-level           -0.3467831 Eh           -9.4364 eV

     #   Z          covCN         q      C6AA      α(0)
     1   6 C        2.743     0.260    22.623     7.788
     2   7 N        2.688    -0.135    23.928     7.265
     3   6 C        2.870     0.031    27.307     8.566
     4   6 C        3.676     0.082    19.433     6.316
     5   6 C        3.805    -0.065    21.748     6.639
     6   6 C        2.960     0.025    27.436     8.591
     7   6 C        2.923    -0.041    29.015     8.833
     8   6 C        2.914    -0.040    28.992     8.829
     9   6 C        2.903    -0.037    28.919     8.818
    10   6 C        2.918    -0.029    28.730     8.790
    11   6 C        2.915    -0.032    28.797     8.800
    12   8 O        1.703    -0.291    18.831     5.859
    13   8 O        0.856    -0.497    23.720     6.530
    14   6 C        2.697     0.331    21.370     7.566
    15   6 C        3.746    -0.132    23.113     6.858
    16   6 C        3.853     0.011    20.350     6.416
    17   8 O        0.857    -0.479    23.329     6.476
    18   6 C        3.788    -0.037    21.245     6.565
    19  16 S        2.051    -0.156   147.656    20.452
    20   6 C        3.792    -0.045    21.394     6.587
    21   6 C        3.835     0.029    20.059     6.372
    22   7 N        2.728    -0.295    27.592     7.801
    23  16 S        3.817     1.162   102.139    17.010
    24   6 C        2.953    -0.090    30.253     9.022
    25   6 C        2.982    -0.033    28.808     8.804
    26   6 C        2.913    -0.037    28.913     8.817
    27   6 C        2.960     0.041    27.081     8.536
    28   6 C        2.918    -0.026    28.651     8.778
    29   6 C        2.923    -0.022    28.554     8.763
    30   8 O        0.860    -0.673    27.993     7.094
    31   8 O        0.860    -0.665    27.768     7.065
    32   6 C        3.753    -0.131    23.078     6.850
    33   1 H        0.943     0.249     0.880     1.467
    34   1 H        0.924     0.063     2.168     2.302
    35   1 H        0.923     0.064     2.153     2.295
    36   1 H        0.924     0.091     1.868     2.137
    37   1 H        0.923     0.075     2.034     2.230
    38   1 H        0.924     0.037     2.487     2.466
    39   1 H        0.926     0.052     2.300     2.372
    40   1 H        0.925     0.039     2.458     2.452
    41   1 H        0.925     0.015     2.817     2.625
    42   1 H        0.925     0.036     2.505     2.475
    43   1 H        0.922     0.070     2.088     2.260
    44   1 H        0.925     0.060     2.199     2.319
    45   1 H        0.924     0.064     2.148     2.292
    46   1 H        0.923     0.031     2.573     2.509
    47   1 H        0.925     0.066     2.129     2.282
    48   1 H        0.924     0.108     1.716     2.048
    49   1 H        0.924     0.097     1.811     2.105
    50   1 H        0.924     0.104     1.748     2.067
    51   1 H        0.924     0.085     1.933     2.174
    52   1 H        0.923     0.083     1.949     2.184
    53   1 H        0.925     0.070     2.082     2.256
    54   1 H        0.925     0.102     1.766     2.078
    55   1 H        0.926     0.074     2.040     2.233
    56   1 H        0.925     0.059     2.207     2.323
    57   1 H        0.923     0.061     2.185     2.311
    58   1 H        0.924     0.077     2.013     2.219
    59   1 H        0.924     0.084     1.933     2.174
    60   7 N        2.635    -0.326    28.404     7.915
    61   1 H        0.860     0.188     1.171     1.695
    62   6 C        3.784     0.040    19.920     6.357
    63   1 H        0.924     0.072     2.063     2.246
    64   6 C        3.808    -0.079    22.009     6.678
    65   1 H        0.925     0.077     2.012     2.218
    66   1 H        0.924     0.060     2.197     2.318
    67   6 C        2.954     0.003    27.955     8.672
    68   6 C        2.920    -0.040    28.983     8.828
    69   1 H        0.925     0.027     2.634     2.538
    70   6 C        2.905    -0.068    29.700     8.936
    71   1 H        0.926     0.034     2.525     2.485
    72   6 C        2.840     0.142    24.904     8.178
    73   8 O        1.659    -0.442    21.678     6.285
    74   1 H        0.806     0.348     0.592     1.209
    75   6 C        2.903    -0.066    29.644     8.927
    76   1 H        0.926     0.047     2.352     2.398
    77   6 C        2.924    -0.046    29.145     8.853
    78   1 H        0.926     0.049     2.336     2.390
    79   6 C        2.758     0.209    23.570     7.950
    80   8 O        0.857    -0.361    20.916     6.132
    81   7 N        2.637    -0.340    28.764     7.965
    82   1 H        0.860     0.172     1.261     1.759
    83   6 C        3.784     0.039    19.935     6.360
    84   1 H        0.924     0.081     1.967     2.193
    85   6 C        3.810    -0.074    21.914     6.663
    86   1 H        0.924     0.066     2.126     2.280
    87   1 H        0.924     0.060     2.205     2.322
    88   6 C        2.951     0.007    27.865     8.658
    89   6 C        2.930    -0.045    29.106     8.848
    90   1 H        0.926     0.039     2.457     2.451
    91   6 C        2.904    -0.040    28.991     8.829
    92   1 H        0.925     0.041     2.439     2.442
    93   6 C        2.920    -0.037    28.930     8.820
    94   1 H        0.925     0.029     2.599     2.521
    95   6 C        2.903    -0.038    28.937     8.820
    96   1 H        0.925     0.038     2.477     2.461
    97   6 C        2.931    -0.041    29.025     8.835
    98   1 H        0.926     0.028     2.608     2.525
    99   6 C        2.752     0.271    22.418     7.753
   100   8 O        0.879    -0.522    24.271     6.606
   101   7 N        2.720    -0.154    24.329     7.326
   102   1 H        0.860     0.198     1.117     1.655
   103   6 C        3.788     0.037    19.971     6.365
   104   1 H        0.925     0.111     1.684     2.030
   105   6 C        3.829    -0.085    22.095     6.688
   106   1 H        0.925     0.037     2.484     2.465
   107   1 H        0.925     0.072     2.068     2.249
   108   6 C        2.687     0.359    20.916     7.484
   109   8 O        0.857    -0.613    26.430     6.893
   110   8 O        0.857    -0.609    26.347     6.882
   111   6 C        2.765     0.209    23.571     7.951
   112   8 O        0.856    -0.375    21.179     6.170
   113   7 N        2.630    -0.339    28.735     7.961
   114   1 H        0.860     0.195     1.133     1.667
   115   6 C        3.784     0.031    20.071     6.382
   116   1 H        0.924     0.105     1.739     2.062
   117   6 C        3.812    -0.073    21.884     6.659
   118   1 H        0.925     0.061     2.191     2.315
   119   1 H        0.924     0.061     2.186     2.312
   120   6 C        3.804    -0.084    22.092     6.692
   121   1 H        0.924     0.073     2.057     2.243
   122   1 H        0.924     0.062     2.176     2.307
   123   6 C        3.735    -0.023    21.069     6.551
   124   1 H        0.925     0.087     1.909     2.161
   125   1 H        0.924     0.080     1.982     2.202
   126   7 N        2.695    -0.144    24.121     7.294
   127   1 H        0.860     0.228     0.974     1.546
   128   6 C        2.733     0.239    23.008     7.853
   129   7 N        2.649    -0.242    26.316     7.619
   130   1 H        0.860     0.237     0.935     1.515
   131   1 H        0.860     0.239     0.926     1.508
   132   7 N        2.654    -0.262    26.803     7.689
   133   1 H        0.860     0.226     0.983     1.553
   134   1 H        0.860     0.248     0.891     1.478
   135   6 C        2.765     0.201    23.714     7.975
   136   8 O        0.856    -0.409    21.867     6.270
   137   7 N        2.638    -0.341    28.768     7.966
   138   1 H        0.860     0.189     1.161     1.688
   139   6 C        3.785     0.040    19.916     6.357
   140   1 H        0.925     0.078     2.000     2.211
   141   6 C        3.815    -0.073    21.890     6.659
   142   1 H        0.924     0.060     2.196     2.317
   143   1 H        0.925     0.099     1.795     2.095
   144   6 C        2.959     0.012    27.750     8.640
   145   6 C        2.922    -0.043    29.071     8.842
   146   1 H        0.925     0.039     2.460     2.453
   147   6 C        2.907    -0.041    29.011     8.832
   148   1 H        0.926     0.037     2.486     2.466
   149   6 C        2.909    -0.041    29.029     8.835
   150   1 H        0.926     0.019     2.749     2.593
   151   6 C        2.913    -0.034    28.838     8.806
   152   1 H        0.926     0.020     2.730     2.584
   153   6 C        2.918    -0.042    29.056     8.839
   154   1 H        0.926     0.057     2.236     2.339
   155   6 C        2.756     0.204    23.657     7.965
   156   8 O        0.856    -0.383    21.350     6.195
   157   7 N        2.632    -0.348    28.974     7.994
   158   1 H        0.860     0.176     1.235     1.741
   159   6 C        3.785     0.032    20.052     6.378
   160   1 H        0.924     0.093     1.852     2.128
   161   6 C        3.808    -0.051    21.484     6.598
   162   1 H        0.924     0.066     2.132     2.283
   163   1 H        0.924     0.041     2.435     2.440
   164   6 C        3.803    -0.084    22.099     6.693
   165   1 H        0.924     0.023     2.689     2.564
   166   1 H        0.925     0.043     2.410     2.428
   167   6 C        2.688     0.364    20.819     7.467
   168   8 O        0.856    -0.648    27.327     7.009
   169   8 O        0.857    -0.655    27.503     7.031
   170   6 C        2.760     0.204    23.661     7.966
   171   8 O        0.856    -0.392    21.520     6.220
   172   7 N        2.642    -0.347    28.949     7.991
   173   1 H        0.860     0.187     1.172     1.696
   174   6 C        3.786     0.041    19.908     6.355
   175   1 H        0.925     0.084     1.942     2.179
   176   6 C        3.834    -0.069    21.802     6.643
   177   1 H        0.924     0.059     2.211     2.325
   178   1 H        0.925     0.072     2.067     2.248
   179   6 C        2.969     0.002    27.969     8.675
   180   6 C        2.904    -0.044    29.100     8.845
   181   1 H        0.926     0.059     2.213     2.326
   182   6 C        2.926    -0.060    29.492     8.906
   183   1 H        0.926     0.050     2.320     2.382
   184   6 C        2.828     0.141    24.919     8.180
   185   8 O        1.660    -0.431    21.465     6.254
   186   1 H        0.806     0.338     0.618     1.234
   187   6 C        2.914    -0.076    29.904     8.967
   188   1 H        0.926     0.044     2.394     2.420
   189   6 C        2.910    -0.049    29.220     8.864
   190   1 H        0.925     0.050     2.323     2.384
   191   6 C        2.769     0.203    23.679     7.969
   192   8 O        0.856    -0.394    21.556     6.225
   193   7 N        2.639    -0.325    28.352     7.908
   194   1 H        0.860     0.176     1.236     1.741
   195   6 C        3.787     0.042    19.877     6.350
   196   1 H        0.924     0.070     2.086     2.259
   197   6 C        3.808    -0.073    21.898     6.661
   198   1 H        0.924     0.061     2.186     2.312
   199   1 H        0.925     0.065     2.137     2.286
   200   6 C        3.162     0.046    26.653     8.438
   201   7 N        1.896    -0.332    29.478     8.049
   202   6 C        3.086     0.076    26.200     8.391
   203   1 H        0.925     0.051     2.311     2.377
   204   7 N        2.814    -0.080    22.788     7.090
   205   1 H        0.860     0.205     1.080     1.628
   206   6 C        2.998    -0.027    28.669     8.783
   207   1 H        0.925     0.051     2.310     2.377
   208   6 C        2.762     0.213    23.496     7.938
   209   8 O        0.858    -0.353    20.767     6.110
   210   7 N        2.642    -0.323    28.307     7.902
   211   1 H        0.860     0.193     1.142     1.674
   212   6 C        3.786     0.034    20.018     6.373
   213   1 H        0.925     0.085     1.932     2.174
   214   6 C        3.870    -0.022    20.924     6.504
   215   1 H        0.925     0.071     2.073     2.252
   216   6 C        3.757    -0.112    22.699     6.793
   217   1 H        0.923     0.051     2.313     2.379
   218   1 H        0.925     0.052     2.296     2.369
   219   1 H        0.925     0.034     2.526     2.485
   220   6 C        3.809    -0.058    21.613     6.618
   221   1 H        0.924     0.019     2.748     2.592
   222   1 H        0.925     0.036     2.501     2.473
   223   6 C        3.753    -0.121    22.882     6.821
   224   1 H        0.925     0.044     2.394     2.420
   225   1 H        0.924     0.042     2.423     2.434
   226   1 H        0.925     0.044     2.394     2.419
   227   6 C        2.756     0.211    23.536     7.944
   228   8 O        0.857    -0.385    21.374     6.198
   229   1 H        0.860     0.202     1.095     1.639
   230   1 H        0.923     0.060     2.196     2.317
   231   1 H        0.860     0.198     1.117     1.655
   232   1 H        0.923     0.077     2.012     2.218
   233   1 H        0.860     0.191     1.155     1.684
   234   1 H        0.923     0.057     2.240     2.340
   235   1 H        0.860     0.185     1.186     1.706
   236   1 H        0.923     0.044     2.393     2.419
   237   1 H        0.860     0.212     1.049     1.604
   238   1 H        0.923     0.066     2.132     2.283
   239   1 H        0.860     0.187     1.175     1.698
   240   1 H        0.923     0.067     2.122     2.278
   241   1 H        0.860     0.188     1.172     1.695
   242   1 H        0.923     0.071     2.070     2.250
   243   1 H        0.860     0.204     1.088     1.634
   244   1 H        0.923     0.068     2.105     2.269

 Mol. C6AA /au·bohr⁶  :     630650.589729
 Mol. C8AA /au·bohr⁸  :   14820123.304453
 Mol. α(0) /au        :       1220.307403


Wiberg/Mayer (AO) data.
largest (>0.10) Wiberg bond orders for each atom

 ---------------------------------------------------------------------------
     #   Z sym  total        # sym  WBO       # sym  WBO       # sym  WBO
 ---------------------------------------------------------------------------
     1   6 C    3.871 --    17 O    1.659     2 N    1.186    21 C    0.937
     2   7 N    3.485 --     3 C    1.199     1 C    1.186    33 H    0.841
                            17 O    0.137
     3   6 C    3.504 --     2 N    1.199    14 C    1.097     5 C    1.032
     4   6 C    3.911 --    15 C    1.011    34 H    0.965    35 H    0.965
                            12 O    0.934
     5   6 C    3.973 --     3 C    1.032     6 C    0.979    36 H    0.948
                            37 H    0.941
     6   6 C    3.956 --    11 C    1.410     7 C    1.405     5 C    0.979
                             9 C    0.106
     7   6 C    3.983 --     8 C    1.444     6 C    1.405    38 H    0.968
                            10 C    0.110
     8   6 C    3.988 --     7 C    1.444     9 C    1.434    39 H    0.970
                            11 C    0.112
     9   6 C    3.984 --    10 C    1.439     8 C    1.434    40 H    0.971
                             6 C    0.106
    10   6 C    3.988 --     9 C    1.439    11 C    1.439    41 H    0.972
                             7 C    0.110
    11   6 C    3.985 --    10 C    1.439     6 C    1.410    42 H    0.969
                             8 C    0.112
    12   8 O    2.239 --    14 C    1.093     4 C    0.934    13 O    0.149
    13   8 O    1.855 --    14 C    1.600    12 O    0.149
    14   6 C    3.871 --    13 O    1.600     3 C    1.097    12 O    1.093
    15   6 C    3.984 --     4 C    1.011    45 H    0.986    44 H    0.984
                            43 H    0.980
    16   6 C    3.966 --    18 C    1.008    22 N    0.979    46 H    0.970
                            47 H    0.960
    17   8 O    1.899 --     1 C    1.659     2 N    0.137
    18   6 C    3.965 --    16 C    1.008    19 S    0.987    48 H    0.965
                            49 H    0.964
    19  16 S    2.190 --    20 C    0.992    18 C    0.987
    20   6 C    3.970 --    19 S    0.992    21 C    0.989    51 H    0.965
                            50 H    0.964
    21   6 C    3.966 --    20 C    0.989    22 N    0.977    52 H    0.940
                             1 C    0.937
    22   7 N    3.177 --    16 C    0.979    21 C    0.977    23 S    0.894
    23  16 S    4.789 --    31 O    1.542    30 O    1.537    22 N    0.894
                            24 C    0.718
    24   6 C    3.926 --    29 C    1.416    25 C    1.390    23 S    0.718
    25   6 C    3.978 --    26 C    1.459    24 C    1.390    53 H    0.961
                            28 C    0.104
    26   6 C    3.979 --    25 C    1.459    27 C    1.385    54 H    0.958
                            29 C    0.106
    27   6 C    3.979 --    28 C    1.414    26 C    1.385    32 C    1.030
    28   6 C    3.983 --    29 C    1.429    27 C    1.414    55 H    0.963
                            25 C    0.104
    29   6 C    3.981 --    28 C    1.429    24 C    1.416    56 H    0.966
                            26 C    0.106
    30   8 O    1.831 --    23 S    1.537
    31   8 O    1.822 --    23 S    1.542
    32   6 C    3.987 --    27 C    1.030    57 H    0.980    59 H    0.972
                            58 H    0.954
    33   1 H    0.938 --     2 N    0.841
    34   1 H    0.992 --     4 C    0.965
    35   1 H    0.993 --     4 C    0.965
    36   1 H    0.991 --     5 C    0.948
    37   1 H    0.974 --     5 C    0.941
    38   1 H    0.999 --     7 C    0.968
    39   1 H    0.997 --     8 C    0.970
    40   1 H    0.998 --     9 C    0.971
    41   1 H    0.999 --    10 C    0.972
    42   1 H    0.998 --    11 C    0.969
    43   1 H    0.994 --    15 C    0.980
    44   1 H    0.996 --    15 C    0.984
    45   1 H    0.996 --    15 C    0.986
    46   1 H    0.999 --    16 C    0.970
    47   1 H    0.996 --    16 C    0.960
    48   1 H    0.988 --    18 C    0.965
    49   1 H    0.990 --    18 C    0.964
    50   1 H    0.988 --    20 C    0.964
    51   1 H    0.992 --    20 C    0.965
    52   1 H    0.991 --    21 C    0.940
    53   1 H    0.995 --    25 C    0.961
    54   1 H    0.989 --    26 C    0.958
    55   1 H    0.993 --    28 C    0.963
    56   1 H    0.996 --    29 C    0.966
    57   1 H    0.996 --    32 C    0.980
    58   1 H    0.993 --    32 C    0.954
    59   1 H    0.992 --    32 C    0.972
    60   7 N    2.996 --    62 C    1.030    61 H    0.950   229 H    0.944
    61   1 H    0.965 --    60 N    0.950
    62   6 C    3.976 --    60 N    1.030    79 C    0.972    63 H    0.954
                            64 C    0.936
    63   1 H    0.994 --    62 C    0.954
    64   6 C    3.968 --    67 C    1.012    65 H    0.962    66 H    0.956
                            62 C    0.936
    65   1 H    0.994 --    64 C    0.962
    66   1 H    0.992 --    64 C    0.956
    67   6 C    3.978 --    68 C    1.404    77 C    1.402    64 C    1.012
    68   6 C    3.987 --    70 C    1.454    67 C    1.404    69 H    0.965
                            75 C    0.104
    69   1 H    0.999 --    68 C    0.965
    70   6 C    3.979 --    68 C    1.454    72 C    1.356    71 H    0.965
                            77 C    0.108
    71   1 H    0.999 --    70 C    0.965
    72   6 C    3.930 --    75 C    1.367    70 C    1.356    73 O    1.079
    73   8 O    2.094 --    72 C    1.079    74 H    0.808
    74   1 H    0.879 --    73 O    0.808
    75   6 C    3.982 --    77 C    1.447    72 C    1.367    76 H    0.970
                            68 C    0.104
    76   1 H    0.997 --    75 C    0.970
    77   6 C    3.983 --    75 C    1.447    67 C    1.402    78 H    0.969
                            70 C    0.108
    78   1 H    0.998 --    77 C    0.969
    79   6 C    3.878 --    80 O    1.904    62 C    0.972   230 H    0.935
    80   8 O    2.056 --    79 C    1.904
    81   7 N    2.991 --    83 C    1.025   231 H    0.945    82 H    0.944
    82   1 H    0.970 --    81 N    0.944
    83   6 C    3.974 --    81 N    1.025    99 C    0.951    84 H    0.949
                            85 C    0.948
    84   1 H    0.991 --    83 C    0.949
    85   6 C    3.971 --    88 C    1.013    86 H    0.965    87 H    0.950
                            83 C    0.948
    86   1 H    0.995 --    85 C    0.965
    87   1 H    0.995 --    85 C    0.950
    88   6 C    3.986 --    89 C    1.422    97 C    1.396    85 C    1.013
                            93 C    0.107
    89   6 C    3.988 --    91 C    1.430    88 C    1.422    90 H    0.969
                            95 C    0.109
    90   1 H    0.998 --    89 C    0.969
    91   6 C    3.988 --    93 C    1.446    89 C    1.430    92 H    0.970
                            97 C    0.114
    92   1 H    0.998 --    91 C    0.970
    93   6 C    3.987 --    91 C    1.446    95 C    1.429    94 H    0.971
                            88 C    0.107
    94   1 H    0.999 --    93 C    0.971
    95   6 C    3.990 --    97 C    1.451    93 C    1.429    96 H    0.970
                            89 C    0.109
    96   1 H    0.998 --    95 C    0.970
    97   6 C    3.988 --    95 C    1.451    88 C    1.396    98 H    0.964
                            91 C    0.114
    98   1 H    0.999 --    97 C    0.964
    99   6 C    3.933 --   100 O    1.602   101 N    1.304    83 C    0.951
   100   8 O    1.908 --    99 C    1.602   101 N    0.187
   101   7 N    3.478 --    99 C    1.304   103 C    0.986   102 H    0.914
                           100 O    0.187
   102   1 H    0.961 --   101 N    0.914
   103   6 C    3.966 --   111 C    1.008   101 N    0.986   105 C    0.933
                           104 H    0.929
   104   1 H    0.987 --   103 C    0.929
   105   6 C    3.979 --   106 H    0.971   108 C    0.947   107 H    0.941
                           103 C    0.933
   106   1 H    0.999 --   105 C    0.971
   107   1 H    0.995 --   105 C    0.941
   108   6 C    3.942 --   110 O    1.513   109 O    1.443   105 C    0.947
   109   8 O    1.846 --   108 C    1.443   110 O    0.213
   110   8 O    1.835 --   108 C    1.513   109 O    0.213
   111   6 C    3.896 --   112 O    1.876   103 C    1.008   232 H    0.936
   112   8 O    2.049 --   111 C    1.876
   113   7 N    2.998 --   115 C    1.040   233 H    0.950   114 H    0.944
   114   1 H    0.962 --   113 N    0.944
   115   6 C    3.976 --   113 N    1.040   135 C    0.987   117 C    0.950
                           116 H    0.914
   116   1 H    0.985 --   115 C    0.914
   117   6 C    3.983 --   120 C    1.004   119 H    0.972   118 H    0.971
                           115 C    0.950
   118   1 H    0.996 --   117 C    0.971
   119   1 H    0.996 --   117 C    0.972
   120   6 C    3.988 --   117 C    1.004   123 C    0.998   122 H    0.972
                           121 H    0.971
   121   1 H    0.995 --   120 C    0.971
   122   1 H    0.996 --   120 C    0.972
   123   6 C    3.950 --   120 C    0.998   126 N    0.984   125 H    0.966
                           124 H    0.962
   124   1 H    0.992 --   123 C    0.962
   125   1 H    0.994 --   123 C    0.966
   126   7 N    3.443 --   128 C    1.291   123 C    0.984   127 H    0.918
   127   1 H    0.948 --   126 N    0.918
   128   6 C    3.975 --   129 N    1.334   132 N    1.319   126 N    1.291
   129   7 N    3.410 --   128 C    1.334   130 H    0.921   131 H    0.886
                           132 N    0.105
   130   1 H    0.944 --   129 N    0.921
   131   1 H    0.943 --   129 N    0.886
   132   7 N    3.392 --   128 C    1.319   133 H    0.928   134 H    0.882
                           129 N    0.105
   133   1 H    0.949 --   132 N    0.928
   134   1 H    0.938 --   132 N    0.882
   135   6 C    3.867 --   136 O    1.860   115 C    0.987   234 H    0.938
   136   8 O    2.017 --   135 C    1.860
   137   7 N    3.011 --   139 C    1.027   235 H    0.951   138 H    0.950
   138   1 H    0.964 --   137 N    0.950
   139   6 C    3.979 --   137 N    1.027   155 C    0.971   141 C    0.955
                           140 H    0.938
   140   1 H    0.989 --   139 C    0.938
   141   6 C    3.983 --   144 C    1.008   142 H    0.972   139 C    0.955
                           143 H    0.951
   142   1 H    0.996 --   141 C    0.972
   143   1 H    0.990 --   141 C    0.951
   144   6 C    3.987 --   145 C    1.421   153 C    1.408   141 C    1.008
                           149 C    0.107
   145   6 C    3.990 --   147 C    1.432   144 C    1.421   146 H    0.969
                           151 C    0.112
   146   1 H    0.998 --   145 C    0.969
   147   6 C    3.990 --   149 C    1.448   145 C    1.432   148 H    0.972
                           153 C    0.113
   148   1 H    0.998 --   147 C    0.972
   149   6 C    3.990 --   147 C    1.448   151 C    1.429   150 H    0.974
                           144 C    0.107
   150   1 H    0.999 --   149 C    0.974
   151   6 C    3.990 --   153 C    1.448   149 C    1.429   152 H    0.973
                           145 C    0.112
   152   1 H    0.999 --   151 C    0.973
   153   6 C    3.988 --   151 C    1.448   144 C    1.408   154 H    0.964
                           147 C    0.113
   154   1 H    0.997 --   153 C    0.964
   155   6 C    3.872 --   156 O    1.886   139 C    0.971   236 H    0.939
   156   8 O    2.036 --   155 C    1.886
   157   7 N    2.995 --   159 C    1.041   158 H    0.951   237 H    0.941
   158   1 H    0.969 --   157 N    0.951
   159   6 C    3.980 --   157 N    1.041   170 C    0.979   161 C    0.947
                           160 H    0.931
   160   1 H    0.990 --   159 C    0.931
   161   6 C    3.982 --   164 C    1.013   163 H    0.974   162 H    0.970
                           159 C    0.947
   162   1 H    0.995 --   161 C    0.970
   163   1 H    0.997 --   161 C    0.974
   164   6 C    3.974 --   161 C    1.013   165 H    0.968   166 H    0.958
                           167 C    0.928
   165   1 H    0.999 --   164 C    0.968
   166   1 H    0.997 --   164 C    0.958
   167   6 C    3.925 --   168 O    1.489   169 O    1.483   164 C    0.928
   168   8 O    1.768 --   167 C    1.489   169 O    0.210
   169   8 O    1.758 --   167 C    1.483   168 O    0.210
   170   6 C    3.869 --   171 O    1.877   159 C    0.979   238 H    0.933
   171   8 O    2.036 --   170 C    1.877
   172   7 N    2.992 --   174 C    1.031   239 H    0.949   173 H    0.946
   173   1 H    0.965 --   172 N    0.946
   174   6 C    3.975 --   172 N    1.031   191 C    0.978   175 H    0.938
                           176 C    0.937
   175   1 H    0.988 --   174 C    0.938
   176   6 C    3.984 --   179 C    1.003   178 H    0.966   177 H    0.963
                           174 C    0.937
   177   1 H    0.996 --   176 C    0.963
   178   1 H    0.994 --   176 C    0.966
   179   6 C    3.984 --   189 C    1.419   180 C    1.396   176 C    1.003
   180   6 C    3.985 --   182 C    1.460   179 C    1.396   181 H    0.966
                           187 C    0.108
   181   1 H    0.996 --   180 C    0.966
   182   6 C    3.986 --   180 C    1.460   184 C    1.364   183 H    0.969
                           189 C    0.107
   183   1 H    0.997 --   182 C    0.969
   184   6 C    3.932 --   187 C    1.373   182 C    1.364   185 O    1.065
   185   8 O    2.084 --   184 C    1.065   186 H    0.867
   186   1 H    0.886 --   185 O    0.867
   187   6 C    3.985 --   189 C    1.438   184 C    1.373   188 H    0.969
                           180 C    0.108
   188   1 H    0.998 --   187 C    0.969
   189   6 C    3.988 --   187 C    1.438   179 C    1.419   190 H    0.968
                           182 C    0.107
   190   1 H    0.998 --   189 C    0.968
   191   6 C    3.866 --   192 O    1.873   174 C    0.978   240 H    0.934
   192   8 O    2.028 --   191 C    1.873
   193   7 N    3.001 --   195 C    1.005   194 H    0.954   241 H    0.948
   194   1 H    0.969 --   193 N    0.954
   195   6 C    3.969 --   193 N    1.005   208 C    0.976   196 H    0.958
                           197 C    0.957
   196   1 H    0.989 --   195 C    0.958
   197   6 C    3.977 --   200 C    1.008   198 H    0.969   195 C    0.957
                           199 H    0.954
   198   1 H    0.996 --   197 C    0.969
   199   1 H    0.995 --   197 C    0.954
   200   6 C    3.970 --   206 C    1.568   201 N    1.266   197 C    1.008
   201   7 N    2.984 --   202 C    1.519   200 C    1.266   204 N    0.108
   202   6 C    3.958 --   201 N    1.519   204 N    1.301   203 H    0.964
                           206 C    0.117
   203   1 H    0.997 --   202 C    0.964
   204   7 N    3.604 --   202 C    1.301   206 C    1.197   205 H    0.929
                           201 N    0.108
   205   1 H    0.958 --   204 N    0.929
   206   6 C    3.931 --   200 C    1.568   204 N    1.197   207 H    0.966
                           202 C    0.117
   207   1 H    0.997 --   206 C    0.966
   208   6 C    3.879 --   209 O    1.905   195 C    0.976   242 H    0.936
   209   8 O    2.065 --   208 C    1.905
   210   7 N    2.974 --   212 C    1.024   243 H    0.945   211 H    0.936
   211   1 H    0.963 --   210 N    0.936
   212   6 C    3.968 --   210 N    1.024   227 C    0.979   213 H    0.949
                           214 C    0.927
   213   1 H    0.992 --   212 C    0.949
   214   6 C    3.965 --   216 C    1.010   220 C    0.992   215 H    0.955
                           212 C    0.927
   215   1 H    0.994 --   214 C    0.955
   216   6 C    3.991 --   214 C    1.010   219 H    0.983   217 H    0.981
                           218 H    0.979
   217   1 H    0.996 --   216 C    0.981
   218   1 H    0.997 --   216 C    0.979
   219   1 H    0.999 --   216 C    0.983
   220   6 C    3.992 --   223 C    1.016   214 C    0.992   222 H    0.975
                           221 H    0.973
   221   1 H    1.000 --   220 C    0.973
   222   1 H    0.996 --   220 C    0.975
   223   6 C    3.992 --   220 C    1.016   224 H    0.985   226 H    0.984
                           225 H    0.982
   224   1 H    0.998 --   223 C    0.985
   225   1 H    0.998 --   223 C    0.982
   226   1 H    0.997 --   223 C    0.984
   227   6 C    3.865 --   228 O    1.887   212 C    0.979   244 H    0.937
   228   8 O    2.032 --   227 C    1.887
   229   1 H    0.959 --    60 N    0.944
   230   1 H    0.993 --    79 C    0.935
   231   1 H    0.961 --    81 N    0.945
   232   1 H    0.993 --   111 C    0.936
   233   1 H    0.963 --   113 N    0.950
   234   1 H    0.993 --   135 C    0.938
   235   1 H    0.965 --   137 N    0.951
   236   1 H    0.995 --   155 C    0.939
   237   1 H    0.955 --   157 N    0.941
   238   1 H    0.993 --   170 C    0.933
   239   1 H    0.965 --   172 N    0.949
   240   1 H    0.992 --   191 C    0.934
   241   1 H    0.965 --   193 N    0.948
   242   1 H    0.993 --   208 C    0.936
   243   1 H    0.958 --   210 N    0.945
   244   1 H    0.993 --   227 C    0.937
 ---------------------------------------------------------------------------

Topologies differ in total number of bonds
Writing topology from bond orders to xtbtopo.mol

molecular dipole:
                 x           y           z       tot (Debye)
 q only:       12.799     -22.026      -8.353
   full:       12.549     -20.667      -9.508      66.037
molecular quadrupole (traceless):
                xx          xy          yy          xz          yz          zz
 q only:     3466.916    -645.114   -2662.513     926.851   -3538.079    -804.403
  q+dip:     3449.103    -546.490   -2410.628     778.430   -3463.106   -1038.475
   full:     3453.733    -544.839   -2408.094     779.231   -3461.726   -1045.639


           -------------------------------------------------
          | TOTAL ENERGY             -379.543115616108 Eh   |
          | GRADIENT NORM               0.294447885258 Eh/α |
          | HOMO-LUMO GAP               0.302010494685 eV   |
           -------------------------------------------------

------------------------------------------------------------------------
 * finished run on 2026/01/05 at 09:06:45.457     
------------------------------------------------------------------------
Note: The following floating-point exceptions are signalling: IEEE_UNDERFLOW_FLAG IEEE_DENORMAL
normal termination of xtb
 total:
 * wall-time:     0 d,  0 h,  0 min,  2.291 sec
 *  cpu-time:     0 d,  0 h,  0 min, 33.056 sec
 * ratio c/w:    14.429 speedup
 SCF:
 * wall-time:     0 d,  0 h,  0 min,  2.200 sec
 *  cpu-time:     0 d,  0 h,  0 min, 31.730 sec
 * ratio c/w:    14.422 speedup

