      -----------------------------------------------------------      
     |                   =====================                   |     
     |                           x T B                           |     
     |                   =====================                   |     
     |                         S. Grimme                         |     
     |          Mulliken Center for Theoretical Chemistry        |     
     |                    University of Bonn                     |     
      -----------------------------------------------------------      

   * xtb version 6.7.1 (edcfbbe) compiled by 'conda@c0858423619e' on 2025-09-04

   xtb is free software: you can redistribute it and/or modify it under
   the terms of the GNU Lesser General Public License as published by
   the Free Software Foundation, either version 3 of the License, or
   (at your option) any later version.
   
   xtb is distributed in the hope that it will be useful,
   but WITHOUT ANY WARRANTY; without even the implied warranty of
   MERCHANTABILITY or FITNESS FOR A PARTICULAR PURPOSE.  See the
   GNU Lesser General Public License for more details.
   
   Cite this work as:
   * C. Bannwarth, E. Caldeweyher, S. Ehlert, A. Hansen, P. Pracht,
     J. Seibert, S. Spicher, S. Grimme, WIREs Comput. Mol. Sci., 2020, 11,
     e01493. DOI: 10.1002/wcms.1493
   
   for GFN2-xTB:
   * C. Bannwarth, S. Ehlert and S. Grimme., J. Chem. Theory Comput., 2019,
     15, 1652-1671. DOI: 10.1021/acs.jctc.8b01176
   for GFN1-xTB:
   * S. Grimme, C. Bannwarth, P. Shushkov, J. Chem. Theory Comput., 2017,
     13, 1989-2009. DOI: 10.1021/acs.jctc.7b00118
   for GFN0-xTB:
   * P. Pracht, E. Caldeweyher, S. Ehlert, S. Grimme, ChemRxiv, 2019, preprint.
     DOI: 10.26434/chemrxiv.8326202.v1
   for GFN-FF:
   * S. Spicher and S. Grimme, Angew. Chem. Int. Ed., 2020, 59, 15665-15673.
     DOI: 10.1002/anie.202004239
   
   for ALPB and GBSA implicit solvation:
   * S. Ehlert, M. Stahn, S. Spicher, S. Grimme, J. Chem. Theory Comput.,
     2021, 17, 4250-4261. DOI: 10.1021/acs.jctc.1c00471
   
   for ddCOSMO and CPCM-X implicit solvation:
   * M. Stahn, S. Ehlert, S. Grimme, J. Phys. Chem. A,
     2023, XX, XXXX-XXXX. DOI: 10.1021/acs.jpca.3c04382
   
   for DFT-D4:
   * E. Caldeweyher, C. Bannwarth and S. Grimme, J. Chem. Phys., 2017,
     147, 034112. DOI: 10.1063/1.4993215
   * E. Caldeweyher, S. Ehlert, A. Hansen, H. Neugebauer, S. Spicher,
     C. Bannwarth and S. Grimme, J. Chem. Phys., 2019, 150, 154122.
     DOI: 10.1063/1.5090222
   * E. Caldeweyher, J.-M. Mewes, S. Ehlert and S. Grimme, Phys. Chem. Chem. Phys.
     2020, 22, 8499-8512. DOI: 10.1039/D0CP00502A
   
   for sTDA-xTB:
   * S. Grimme and C. Bannwarth, J. Chem. Phys., 2016, 145, 054103.
     DOI: 10.1063/1.4959605
   
   in the mass-spec context:
   * V. Asgeirsson, C. Bauer and S. Grimme, Chem. Sci., 2017, 8, 4879.
     DOI: 10.1039/c7sc00601b
   * J. Koopman and S. Grimme, ACS Omega 2019, 4, 12, 15120-15133.
     DOI: 10.1021/acsomega.9b02011
   
   for metadynamics refer to:
   * S. Grimme, J. Chem. Theory Comput., 2019, 155, 2847-2862
     DOI: 10.1021/acs.jctc.9b00143
   
   for SPH calculations refer to:
   * S. Spicher and S. Grimme, J. Chem. Theory Comput., 2021, 17, 1701-1714
     DOI: 10.1021/acs.jctc.0c01306
   
   for ONIOM refer to:
   * C. Plett, A. Katbashev, S. Ehlert, S. Grimme, M. Bursch,
     Phys. Chem. Chem. Phys., 2023, 25, 17860-17868. DOI: 10.1039/D3CP02178E
   
   for DIPRO refer to:
   * J. Kohn, N. Gildemeister, S. Grimme, D. Fazzi, A. Hansen,
     J. Chem. Phys., 2023, just accepted.
   
   for PTB refer to:
   * S. Grimme, M. Mueller, A. Hansen, J. Chem. Phys., 2023, 158, 124111.
     DOI: 10.1063/5.0137838
   
   with help from (in alphabetical order)
   P. Atkinson, C. Bannwarth, F. Bohle, G. Brandenburg, E. Caldeweyher
   M. Checinski, S. Dohm, S. Ehlert, S. Ehrlich, I. Gerasimov, C. Hölzer
   A. Katbashev, J. Kohn, J. Koopman, C. Lavigne, S. Lehtola, F. März, M. Müller,
   F. Musil, H. Neugebauer, J. Pisarek, C. Plett, P. Pracht, F. Pultar,
   J. Seibert, P. Shushkov, S. Spicher, M. Stahn, M. Steiner, T. Strunk,
   J. Stückrath, T. Rose, and J. Unsleber
   
 * started run on 2026/01/05 at 09:07:28.005     
   ID    Z sym.   atoms
    1    6 C      1, 3-11, 14-16, 18, 20, 21, 24-29, 32
    2    7 N      2, 22
    3    8 O      12, 13, 17, 30, 31
    4   16 S      19, 23
    5    1 H      33-59

           -------------------------------------------------
          |                Calculation Setup                |
           -------------------------------------------------

          program call               : xtb /home/antonio_mesquita/Documentos/gmx_ISA_project/testes_arquivos_primeiros/gmx_ISA_testes/testes_qm_xtb/QM_analysis/QM_FRAMES_CAPPED/frame_4000ps/ligand_isolated_4000ps.xyz --gfn 2 --alpb water --chrg 1 --etemp 1500 --cycles 1000
          coordinate file            : /home/antonio_mesquita/Documentos/gmx_ISA_project/testes_arquivos_primeiros/gmx_ISA_testes/testes_qm_xtb/QM_analysis/QM_FRAMES_CAPPED/frame_4000ps/ligand_isolated_4000ps.xyz
          omp threads                :                    16


           -------------------------------------------------
          |                 G F N 2 - x T B                 |
           -------------------------------------------------

        Reference                      10.1021/acs.jctc.8b01176
      * Hamiltonian:
        H0-scaling (s, p, d)           1.850000    2.230000    2.230000
        zeta-weighting                 0.500000
      * Dispersion:
        s8                             2.700000
        a1                             0.520000
        a2                             5.000000
        s9                             5.000000
      * Repulsion:
        kExp                           1.500000    1.000000
        rExp                           1.000000
      * Coulomb:
        alpha                          2.000000
        third order                    shell-resolved
        anisotropic                    true
        a3                             3.000000
        a5                             4.000000
        cn-shift                       1.200000
        cn-exp                         4.000000
        max-rad                        5.000000

      * Solvation model:               ALPB
        Solvent                        water
        Parameter file                 internal GFN2-xTB/ALPB
        Dielectric constant                8.0200E+01
        Reference state                gsolv [1 M gas/solution]
        Free energy shift                  1.0808E-03 Eh       6.7819E-01 kcal/mol
        Temperature                        2.9815E+02 K
        Density                            1.0000E+00 kg/L
        Solvent mass                       1.8000E+01 g/mol
        Interaction kernel             P16
        Born radius scaling (c1)           1.4744E+00
        Born radii integrator          GBOBC
        Born offset                        0.0000E+00 a0       0.0000E+00 AA
        H-bond correction              true
        Ion screening                  false
        Surface tension                    1.0000E-05 Eh       1.5569E+01 dyn/cm
        Grid points                               230 per atom

          ...................................................
          :                      SETUP                      :
          :.................................................:
          :  # basis functions                 167          :
          :  # atomic orbitals                 165          :
          :  # shells                           93          :
          :  # electrons                       170          :
          :  max. iterations                   250          :
          :  Hamiltonian                  GFN2-xTB          :
          :  restarted?                      false          :
          :  GBSA solvation                   true          :
          :  PC potential                    false          :
          :  electronic temp.         1500.0000000     K    :
          :  accuracy                    1.0000000          :
          :  -> integral cutoff          0.2500000E+02      :
          :  -> integral neglect         0.1000000E-07      :
          :  -> SCF convergence          0.1000000E-05 Eh   :
          :  -> wf. convergence          0.1000000E-03 e    :
          :  Broyden damping             0.4000000          :
          :  net charge                          1          :
          :  unpaired electrons                  0          :
          ...................................................

 iter      E             dE          RMSdq      gap      omega  full diag
   1    -96.2274633 -0.962275E+02  0.493E+00    1.02       0.0  T
   2    -96.2351677 -0.770432E-02  0.370E+00    0.34       1.0  T
   3    -96.3204817 -0.853140E-01  0.268E+00    1.60       1.0  T
   4    -96.4138510 -0.933693E-01  0.142E+00    0.72       1.0  T
   5    -96.3936640  0.201870E-01  0.117E+00    1.04       1.0  T
   6    -96.4364957 -0.428317E-01  0.264E-01    0.44       1.0  T
   7    -96.4370528 -0.557146E-03  0.127E-01    0.36       1.0  T
   8    -96.4371985 -0.145694E-03  0.800E-02    0.41       1.0  T
   9    -96.4372929 -0.943518E-04  0.342E-02    0.38       1.0  T
  10    -96.4373055 -0.126350E-04  0.244E-02    0.40       1.0  T
  11    -96.4373147 -0.920132E-05  0.135E-02    0.39       1.0  T
  12    -96.4373185 -0.374667E-05  0.342E-03    0.39       3.8  T
  13    -96.4373186 -0.132287E-06  0.138E-03    0.39       9.4  T
  14    -96.4373186 -0.175519E-07  0.792E-04    0.39      16.4  T
  15    -96.4373186 -0.114976E-07  0.262E-04    0.39      49.8  T

   *** convergence criteria satisfied after 15 iterations ***

         #    Occupation            Energy/Eh            Energy/eV
      -------------------------------------------------------------
         1        2.0000           -0.7982808             -21.7223
       ...           ...                  ...                  ...
        79        1.9997           -0.4346355             -11.8270
        80        1.9993           -0.4296110             -11.6903
        81        1.9964           -0.4221410             -11.4870
        82        1.9935           -0.4193371             -11.4107
        83        1.9921           -0.4184039             -11.3853
        84        1.9862           -0.4157357             -11.3127
        85        1.6582           -0.3996308             -10.8745 (HOMO)
        86        0.3749           -0.3851612             -10.4808 (LUMO)
        87                         -0.2804692              -7.6320
        88                         -0.2707748              -7.3682
        89                         -0.2560190              -6.9666
        90                         -0.2485356              -6.7630
       ...                                ...                  ...
       165                          1.0755655              29.2676
      -------------------------------------------------------------
                  HL-Gap            0.0144696 Eh            0.3937 eV
             Fermi-level           -0.3921288 Eh          -10.6704 eV

 SCC (total)                   0 d,  0 h,  0 min,  0.157 sec
 SCC setup                      ...        0 min,  0.002 sec (  1.330%)
 Dispersion                     ...        0 min,  0.001 sec (  0.858%)
 classical contributions        ...        0 min,  0.000 sec (  0.118%)
 integral evaluation            ...        0 min,  0.013 sec (  8.372%)
 iterations                     ...        0 min,  0.110 sec ( 70.111%)
 molecular gradient             ...        0 min,  0.029 sec ( 18.330%)
 printout                       ...        0 min,  0.001 sec (  0.866%)

         :::::::::::::::::::::::::::::::::::::::::::::::::::::
         ::                     SUMMARY                     ::
         :::::::::::::::::::::::::::::::::::::::::::::::::::::
         :: total energy             -95.290846128804 Eh    ::
         :: total w/o Gsasa/hb       -95.285824337224 Eh    ::
         :: gradient norm              0.139128137455 Eh/a0 ::
         :: HOMO-LUMO gap              0.393737746751 eV    ::
         ::.................................................::
         :: SCC energy               -96.436488960714 Eh    ::
         :: -> isotropic ES            0.252970811636 Eh    ::
         :: -> anisotropic ES         -0.029228760825 Eh    ::
         :: -> anisotropic XC          0.041782418258 Eh    ::
         :: -> dispersion             -0.068831829098 Eh    ::
         :: -> Gsolv                  -0.098699135761 Eh    ::
         ::    -> Gelec               -0.093677344181 Eh    ::
         ::    -> Gsasa                0.002457277621 Eh    ::
         ::    -> Ghb                 -0.008559828899 Eh    ::
         ::    -> Gshift               0.001080759698 Eh    ::
         :: repulsion energy           1.145642831910 Eh    ::
         :: add. restraining           0.000000000000 Eh    ::
         :: total charge               1.000000000099 e     ::
         :::::::::::::::::::::::::::::::::::::::::::::::::::::

           -------------------------------------------------
          |                Property Printout                |
           -------------------------------------------------

    * Orbital Energies and Occupations

         #    Occupation            Energy/Eh            Energy/eV
      -------------------------------------------------------------
         1        2.0000           -0.7982808             -21.7223
       ...           ...                  ...                  ...
        73        2.0000           -0.4612054             -12.5500
        74        2.0000           -0.4531561             -12.3310
        75        2.0000           -0.4470024             -12.1636
        76        2.0000           -0.4430569             -12.0562
        77        1.9999           -0.4400703             -11.9749
        78        1.9999           -0.4376456             -11.9089
        79        1.9997           -0.4346355             -11.8270
        80        1.9993           -0.4296110             -11.6903
        81        1.9964           -0.4221410             -11.4870
        82        1.9935           -0.4193371             -11.4107
        83        1.9921           -0.4184039             -11.3853
        84        1.9862           -0.4157357             -11.3127
        85        1.6582           -0.3996308             -10.8745 (HOMO)
        86        0.3749           -0.3851612             -10.4808 (LUMO)
        87                         -0.2804692              -7.6320
        88                         -0.2707748              -7.3682
        89                         -0.2560190              -6.9666
        90                         -0.2485356              -6.7630
        91                         -0.2441785              -6.6444
        92                         -0.2372274              -6.4553
        93                         -0.2318071              -6.3078
        94                         -0.1880853              -5.1181
        95                         -0.1781107              -4.8466
        96                         -0.1439114              -3.9160
       ...                                ...                  ...
       165                          1.0755655              29.2676
      -------------------------------------------------------------
                  HL-Gap            0.0144696 Eh            0.3937 eV
             Fermi-level           -0.3921288 Eh          -10.6704 eV

     #   Z          covCN         q      C6AA      α(0)
     1   6 C        2.743     0.274    22.358     7.742
     2   7 N        2.691    -0.074    22.679     7.073
     3   6 C        2.871     0.093    25.941     8.349
     4   6 C        3.678     0.068    19.659     6.352
     5   6 C        3.807    -0.074    21.915     6.664
     6   6 C        2.966     0.032    27.284     8.568
     7   6 C        2.919    -0.040    28.992     8.830
     8   6 C        2.907    -0.030    28.752     8.792
     9   6 C        2.911    -0.023    28.588     8.768
    10   6 C        2.913    -0.024    28.614     8.772
    11   6 C        2.909    -0.039    28.977     8.827
    12   8 O        1.705    -0.240    17.979     5.725
    13   8 O        0.856    -0.435    22.386     6.344
    14   6 C        2.704     0.349    21.080     7.515
    15   6 C        3.749    -0.136    23.185     6.868
    16   6 C        3.866    -0.000    20.546     6.446
    17   8 O        0.858    -0.403    21.739     6.251
    18   6 C        3.791    -0.055    21.568     6.614
    19  16 S        1.964     0.029   139.887    19.906
    20   6 C        3.791    -0.071    21.872     6.660
    21   6 C        3.894     0.020    20.180     6.386
    22   7 N        2.730    -0.262    26.789     7.687
    23  16 S        3.891     1.138   102.769    17.062
    24   6 C        2.970    -0.083    30.078     8.996
    25   6 C        2.950    -0.033    28.818     8.805
    26   6 C        2.929    -0.037    28.918     8.819
    27   6 C        2.960     0.037    27.160     8.548
    28   6 C        2.916    -0.037    28.927     8.820
    29   6 C        2.941    -0.029    28.729     8.791
    30   8 O        0.859    -0.671    27.927     7.085
    31   8 O        0.860    -0.648    27.330     7.009
    32   6 C        3.752    -0.142    23.299     6.883
    33   1 H        0.860     0.272     0.802     1.403
    34   1 H        0.924     0.087     1.913     2.163
    35   1 H        0.923     0.070     2.090     2.261
    36   1 H        0.923     0.123     1.590     1.972
    37   1 H        0.924     0.125     1.577     1.964
    38   1 H        0.925     0.074     2.047     2.237
    39   1 H        0.924     0.067     2.117     2.275
    40   1 H        0.925     0.065     2.147     2.291
    41   1 H        0.925     0.061     2.188     2.313
    42   1 H        0.925     0.060     2.200     2.319
    43   1 H        0.924     0.066     2.135     2.285
    44   1 H        0.925     0.072     2.068     2.249
    45   1 H        0.923     0.081     1.964     2.192
    46   1 H        0.923     0.066     2.135     2.285
    47   1 H        0.924     0.084     1.936     2.176
    48   1 H        0.923     0.114     1.667     2.019
    49   1 H        0.925     0.116     1.647     2.007
    50   1 H        0.924     0.141     1.452     1.884
    51   1 H        0.924     0.127     1.556     1.951
    52   1 H        0.924     0.128     1.547     1.945
    53   1 H        0.925     0.078     1.998     2.210
    54   1 H        0.925     0.083     1.953     2.186
    55   1 H        0.924     0.084     1.934     2.175
    56   1 H        0.925     0.066     2.132     2.283
    57   1 H        0.925     0.094     1.841     2.122
    58   1 H        0.924     0.075     2.034     2.230
    59   1 H        0.923     0.072     2.065     2.247

 Mol. C6AA /au·bohr⁶  :      43303.947425
 Mol. C8AA /au·bohr⁸  :    1116600.662285
 Mol. α(0) /au        :        323.600710


Wiberg/Mayer (AO) data.
largest (>0.10) Wiberg bond orders for each atom

 ---------------------------------------------------------------------------
     #   Z sym  total        # sym  WBO       # sym  WBO       # sym  WBO
 ---------------------------------------------------------------------------
     1   6 C    3.893 --    17 O    1.734     2 N    1.136    21 C    0.931
     2   7 N    3.555 --     3 C    1.296     1 C    1.136    33 H    0.872
                            17 O    0.107
     3   6 C    3.665 --     2 N    1.296     5 C    1.065    14 C    1.025
     4   6 C    3.899 --    15 C    1.011    35 H    0.966    34 H    0.955
                            12 O    0.926
     5   6 C    3.951 --     3 C    1.065    36 H    0.949    37 H    0.926
                             6 C    0.921
     6   6 C    3.936 --    11 C    1.414     7 C    1.381     5 C    0.921
     7   6 C    3.969 --     8 C    1.452     6 C    1.381    38 H    0.957
                            10 C    0.103
     8   6 C    3.976 --     7 C    1.452     9 C    1.415    39 H    0.965
                            11 C    0.109
     9   6 C    3.960 --    10 C    1.438     8 C    1.415    40 H    0.962
    10   6 C    3.972 --     9 C    1.438    11 C    1.420    41 H    0.964
                             7 C    0.103
    11   6 C    3.974 --    10 C    1.420     6 C    1.414    42 H    0.966
                             8 C    0.109
    12   8 O    2.322 --    14 C    1.146     4 C    0.926    13 O    0.189
    13   8 O    1.967 --    14 C    1.662    12 O    0.189
    14   6 C    3.910 --    13 O    1.662    12 O    1.146     3 C    1.025
    15   6 C    3.978 --     4 C    1.011    43 H    0.984    44 H    0.979
                            45 H    0.978
    16   6 C    3.950 --    18 C    0.999    22 N    0.979    46 H    0.965
                            47 H    0.960
    17   8 O    2.004 --     1 C    1.734     2 N    0.107
    18   6 C    3.948 --    16 C    0.999    19 S    0.993    49 H    0.960
                            48 H    0.955
    19  16 S    2.096 --    20 C    0.996    18 C    0.993
    20   6 C    3.946 --    19 S    0.996    21 C    0.988    51 H    0.949
                            50 H    0.944
    21   6 C    3.949 --    22 N    0.991    20 C    0.988     1 C    0.931
                            52 H    0.903
    22   7 N    3.163 --    21 C    0.991    16 C    0.979    23 S    0.866
    23  16 S    4.816 --    31 O    1.574    30 O    1.539    22 N    0.866
                            24 C    0.730
    24   6 C    3.928 --    25 C    1.408    29 C    1.395    23 S    0.730
    25   6 C    3.979 --    26 C    1.441    24 C    1.408    53 H    0.962
                            28 C    0.102
    26   6 C    3.980 --    25 C    1.441    27 C    1.401    54 H    0.961
                            29 C    0.104
    27   6 C    3.976 --    26 C    1.401    28 C    1.393    32 C    1.028
    28   6 C    3.980 --    29 C    1.452    27 C    1.393    55 H    0.962
                            25 C    0.102
    29   6 C    3.983 --    28 C    1.452    24 C    1.395    56 H    0.964
                            26 C    0.104
    30   8 O    1.821 --    23 S    1.539
    31   8 O    1.850 --    23 S    1.574
    32   6 C    3.985 --    27 C    1.028    58 H    0.977    59 H    0.977
                            57 H    0.953
    33   1 H    0.925 --     2 N    0.872
    34   1 H    0.988 --     4 C    0.955
    35   1 H    0.993 --     4 C    0.966
    36   1 H    0.982 --     5 C    0.949
    37   1 H    0.975 --     5 C    0.926
    38   1 H    0.993 --     7 C    0.957
    39   1 H    0.994 --     8 C    0.965
    40   1 H    0.990 --     9 C    0.962
    41   1 H    0.991 --    10 C    0.964
    42   1 H    0.996 --    11 C    0.966
    43   1 H    0.995 --    15 C    0.984
    44   1 H    0.994 --    15 C    0.979
    45   1 H    0.993 --    15 C    0.978
    46   1 H    0.990 --    16 C    0.965
    47   1 H    0.992 --    16 C    0.960
    48   1 H    0.970 --    18 C    0.955
    49   1 H    0.985 --    18 C    0.960
    50   1 H    0.964 --    20 C    0.944
    51   1 H    0.983 --    20 C    0.949
    52   1 H    0.981 --    21 C    0.903
    53   1 H    0.994 --    25 C    0.962
    54   1 H    0.992 --    26 C    0.961
    55   1 H    0.992 --    28 C    0.962
    56   1 H    0.995 --    29 C    0.964
    57   1 H    0.989 --    32 C    0.953
    58   1 H    0.994 --    32 C    0.977
    59   1 H    0.994 --    32 C    0.977
 ---------------------------------------------------------------------------

Topologies differ in total number of bonds
Writing topology from bond orders to xtbtopo.mol

molecular dipole:
                 x           y           z       tot (Debye)
 q only:       31.913      17.046     111.078
   full:       32.077      16.673     111.088     296.932
molecular quadrupole (traceless):
                xx          xy          yy          xz          yz          zz
 q only:    -5342.097     831.351   -6451.041    5274.509    2854.804   11793.138
  q+dip:    -5323.496     821.392   -6466.030    5303.631    2796.715   11789.526
   full:    -5323.385     819.478   -6464.727    5305.421    2795.487   11788.112


           -------------------------------------------------
          | TOTAL ENERGY              -95.290846128804 Eh   |
          | GRADIENT NORM               0.139128137455 Eh/α |
          | HOMO-LUMO GAP               0.393737746751 eV   |
           -------------------------------------------------

------------------------------------------------------------------------
 * finished run on 2026/01/05 at 09:07:28.187     
Note: The following floating-point exceptions are signalling: IEEE_UNDERFLOW_FLAG IEEE_DENORMAL
normal termination of xtb
------------------------------------------------------------------------
 total:
 * wall-time:     0 d,  0 h,  0 min,  0.182 sec
 *  cpu-time:     0 d,  0 h,  0 min,  2.738 sec
 * ratio c/w:    15.053 speedup
 SCF:
 * wall-time:     0 d,  0 h,  0 min,  0.158 sec
 *  cpu-time:     0 d,  0 h,  0 min,  2.387 sec
 * ratio c/w:    15.120 speedup

