      -----------------------------------------------------------      
     |                   =====================                   |     
     |                           x T B                           |     
     |                   =====================                   |     
     |                         S. Grimme                         |     
     |          Mulliken Center for Theoretical Chemistry        |     
     |                    University of Bonn                     |     
      -----------------------------------------------------------      

   * xtb version 6.7.1 (edcfbbe) compiled by 'conda@c0858423619e' on 2025-09-04

   xtb is free software: you can redistribute it and/or modify it under
   the terms of the GNU Lesser General Public License as published by
   the Free Software Foundation, either version 3 of the License, or
   (at your option) any later version.
   
   xtb is distributed in the hope that it will be useful,
   but WITHOUT ANY WARRANTY; without even the implied warranty of
   MERCHANTABILITY or FITNESS FOR A PARTICULAR PURPOSE.  See the
   GNU Lesser General Public License for more details.
   
   Cite this work as:
   * C. Bannwarth, E. Caldeweyher, S. Ehlert, A. Hansen, P. Pracht,
     J. Seibert, S. Spicher, S. Grimme, WIREs Comput. Mol. Sci., 2020, 11,
     e01493. DOI: 10.1002/wcms.1493
   
   for GFN2-xTB:
   * C. Bannwarth, S. Ehlert and S. Grimme., J. Chem. Theory Comput., 2019,
     15, 1652-1671. DOI: 10.1021/acs.jctc.8b01176
   for GFN1-xTB:
   * S. Grimme, C. Bannwarth, P. Shushkov, J. Chem. Theory Comput., 2017,
     13, 1989-2009. DOI: 10.1021/acs.jctc.7b00118
   for GFN0-xTB:
   * P. Pracht, E. Caldeweyher, S. Ehlert, S. Grimme, ChemRxiv, 2019, preprint.
     DOI: 10.26434/chemrxiv.8326202.v1
   for GFN-FF:
   * S. Spicher and S. Grimme, Angew. Chem. Int. Ed., 2020, 59, 15665-15673.
     DOI: 10.1002/anie.202004239
   
   for ALPB and GBSA implicit solvation:
   * S. Ehlert, M. Stahn, S. Spicher, S. Grimme, J. Chem. Theory Comput.,
     2021, 17, 4250-4261. DOI: 10.1021/acs.jctc.1c00471
   
   for ddCOSMO and CPCM-X implicit solvation:
   * M. Stahn, S. Ehlert, S. Grimme, J. Phys. Chem. A,
     2023, XX, XXXX-XXXX. DOI: 10.1021/acs.jpca.3c04382
   
   for DFT-D4:
   * E. Caldeweyher, C. Bannwarth and S. Grimme, J. Chem. Phys., 2017,
     147, 034112. DOI: 10.1063/1.4993215
   * E. Caldeweyher, S. Ehlert, A. Hansen, H. Neugebauer, S. Spicher,
     C. Bannwarth and S. Grimme, J. Chem. Phys., 2019, 150, 154122.
     DOI: 10.1063/1.5090222
   * E. Caldeweyher, J.-M. Mewes, S. Ehlert and S. Grimme, Phys. Chem. Chem. Phys.
     2020, 22, 8499-8512. DOI: 10.1039/D0CP00502A
   
   for sTDA-xTB:
   * S. Grimme and C. Bannwarth, J. Chem. Phys., 2016, 145, 054103.
     DOI: 10.1063/1.4959605
   
   in the mass-spec context:
   * V. Asgeirsson, C. Bauer and S. Grimme, Chem. Sci., 2017, 8, 4879.
     DOI: 10.1039/c7sc00601b
   * J. Koopman and S. Grimme, ACS Omega 2019, 4, 12, 15120-15133.
     DOI: 10.1021/acsomega.9b02011
   
   for metadynamics refer to:
   * S. Grimme, J. Chem. Theory Comput., 2019, 155, 2847-2862
     DOI: 10.1021/acs.jctc.9b00143
   
   for SPH calculations refer to:
   * S. Spicher and S. Grimme, J. Chem. Theory Comput., 2021, 17, 1701-1714
     DOI: 10.1021/acs.jctc.0c01306
   
   for ONIOM refer to:
   * C. Plett, A. Katbashev, S. Ehlert, S. Grimme, M. Bursch,
     Phys. Chem. Chem. Phys., 2023, 25, 17860-17868. DOI: 10.1039/D3CP02178E
   
   for DIPRO refer to:
   * J. Kohn, N. Gildemeister, S. Grimme, D. Fazzi, A. Hansen,
     J. Chem. Phys., 2023, just accepted.
   
   for PTB refer to:
   * S. Grimme, M. Mueller, A. Hansen, J. Chem. Phys., 2023, 158, 124111.
     DOI: 10.1063/5.0137838
   
   with help from (in alphabetical order)
   P. Atkinson, C. Bannwarth, F. Bohle, G. Brandenburg, E. Caldeweyher
   M. Checinski, S. Dohm, S. Ehlert, S. Ehrlich, I. Gerasimov, C. Hölzer
   A. Katbashev, J. Kohn, J. Koopman, C. Lavigne, S. Lehtola, F. März, M. Müller,
   F. Musil, H. Neugebauer, J. Pisarek, C. Plett, P. Pracht, F. Pultar,
   J. Seibert, P. Shushkov, S. Spicher, M. Stahn, M. Steiner, T. Strunk,
   J. Stückrath, T. Rose, and J. Unsleber
   
 * started run on 2026/01/05 at 09:06:41.208     
   ID    Z sym.   atoms
    1    6 C      1, 3-11, 14-16, 18, 20, 21, 24-29, 32
    2    7 N      2, 22
    3    8 O      12, 13, 17, 30, 31
    4   16 S      19, 23
    5    1 H      33-59

           -------------------------------------------------
          |                Calculation Setup                |
           -------------------------------------------------

          program call               : xtb /home/antonio_mesquita/Documentos/gmx_ISA_project/testes_arquivos_primeiros/gmx_ISA_testes/testes_qm_xtb/QM_analysis/QM_FRAMES_CAPPED/frame_2000ps/ligand_isolated_2000ps.xyz --gfn 2 --alpb water --chrg 1 --etemp 1500 --cycles 1000
          coordinate file            : /home/antonio_mesquita/Documentos/gmx_ISA_project/testes_arquivos_primeiros/gmx_ISA_testes/testes_qm_xtb/QM_analysis/QM_FRAMES_CAPPED/frame_2000ps/ligand_isolated_2000ps.xyz
          omp threads                :                    16


           -------------------------------------------------
          |                 G F N 2 - x T B                 |
           -------------------------------------------------

        Reference                      10.1021/acs.jctc.8b01176
      * Hamiltonian:
        H0-scaling (s, p, d)           1.850000    2.230000    2.230000
        zeta-weighting                 0.500000
      * Dispersion:
        s8                             2.700000
        a1                             0.520000
        a2                             5.000000
        s9                             5.000000
      * Repulsion:
        kExp                           1.500000    1.000000
        rExp                           1.000000
      * Coulomb:
        alpha                          2.000000
        third order                    shell-resolved
        anisotropic                    true
        a3                             3.000000
        a5                             4.000000
        cn-shift                       1.200000
        cn-exp                         4.000000
        max-rad                        5.000000

      * Solvation model:               ALPB
        Solvent                        water
        Parameter file                 internal GFN2-xTB/ALPB
        Dielectric constant                8.0200E+01
        Reference state                gsolv [1 M gas/solution]
        Free energy shift                  1.0808E-03 Eh       6.7819E-01 kcal/mol
        Temperature                        2.9815E+02 K
        Density                            1.0000E+00 kg/L
        Solvent mass                       1.8000E+01 g/mol
        Interaction kernel             P16
        Born radius scaling (c1)           1.4744E+00
        Born radii integrator          GBOBC
        Born offset                        0.0000E+00 a0       0.0000E+00 AA
        H-bond correction              true
        Ion screening                  false
        Surface tension                    1.0000E-05 Eh       1.5569E+01 dyn/cm
        Grid points                               230 per atom

          ...................................................
          :                      SETUP                      :
          :.................................................:
          :  # basis functions                 167          :
          :  # atomic orbitals                 165          :
          :  # shells                           93          :
          :  # electrons                       170          :
          :  max. iterations                   250          :
          :  Hamiltonian                  GFN2-xTB          :
          :  restarted?                      false          :
          :  GBSA solvation                   true          :
          :  PC potential                    false          :
          :  electronic temp.         1500.0000000     K    :
          :  accuracy                    1.0000000          :
          :  -> integral cutoff          0.2500000E+02      :
          :  -> integral neglect         0.1000000E-07      :
          :  -> SCF convergence          0.1000000E-05 Eh   :
          :  -> wf. convergence          0.1000000E-03 e    :
          :  Broyden damping             0.4000000          :
          :  net charge                          1          :
          :  unpaired electrons                  0          :
          ...................................................

 iter      E             dE          RMSdq      gap      omega  full diag
   1    -96.2345248 -0.962345E+02  0.494E+00    0.88       0.0  T
   2    -96.2605297 -0.260048E-01  0.361E+00    0.32       1.0  T
   3    -96.3180942 -0.575645E-01  0.270E+00    1.60       1.0  T
   4    -96.4107091 -0.926149E-01  0.139E+00    0.61       1.0  T
   5    -96.3891530  0.215560E-01  0.117E+00    0.96       1.0  T
   6    -96.4326401 -0.434870E-01  0.245E-01    0.40       1.0  T
   7    -96.4330732 -0.433124E-03  0.102E-01    0.37       1.0  T
   8    -96.4331765 -0.103325E-03  0.593E-02    0.37       1.0  T
   9    -96.4331794 -0.288716E-05  0.456E-02    0.39       1.0  T
  10    -96.4332135 -0.340670E-04  0.190E-02    0.37       1.0  T
  11    -96.4332186 -0.509647E-05  0.693E-03    0.37       1.9  T
  12    -96.4332192 -0.601867E-06  0.420E-03    0.38       3.1  T
  13    -96.4332195 -0.287577E-06  0.147E-03    0.37       8.9  T
  14    -96.4332195 -0.377258E-07  0.624E-04    0.37      20.9  T
  15    -96.4332195 -0.345258E-08  0.242E-04    0.37      53.7  T

   *** convergence criteria satisfied after 15 iterations ***

         #    Occupation            Energy/Eh            Energy/eV
      -------------------------------------------------------------
         1        2.0000           -0.8013079             -21.8047
       ...           ...                  ...                  ...
        79        1.9989           -0.4275913             -11.6354
        80        1.9976           -0.4236793             -11.5289
        81        1.9959           -0.4212443             -11.4626
        82        1.9935           -0.4189883             -11.4013
        83        1.9874           -0.4158276             -11.3152
        84        1.9802           -0.4136648             -11.2564
        85        1.6426           -0.3990446             -10.8586 (HOMO)
        86        0.4043           -0.3852781             -10.4839 (LUMO)
        87                         -0.2795957              -7.6082
        88                         -0.2655313              -7.2255
        89                         -0.2521519              -6.8614
        90                         -0.2451645              -6.6713
       ...                                ...                  ...
       165                          1.0308399              28.0506
      -------------------------------------------------------------
                  HL-Gap            0.0137665 Eh            0.3746 eV
             Fermi-level           -0.3917993 Eh          -10.6614 eV

 SCC (total)                   0 d,  0 h,  0 min,  0.208 sec
 SCC setup                      ...        0 min,  0.002 sec (  0.903%)
 Dispersion                     ...        0 min,  0.002 sec (  0.874%)
 classical contributions        ...        0 min,  0.000 sec (  0.140%)
 integral evaluation            ...        0 min,  0.009 sec (  4.091%)
 iterations                     ...        0 min,  0.159 sec ( 76.433%)
 molecular gradient             ...        0 min,  0.036 sec ( 17.247%)
 printout                       ...        0 min,  0.001 sec (  0.302%)

         :::::::::::::::::::::::::::::::::::::::::::::::::::::
         ::                     SUMMARY                     ::
         :::::::::::::::::::::::::::::::::::::::::::::::::::::
         :: total energy             -95.283583540511 Eh    ::
         :: total w/o Gsasa/hb       -95.279686218661 Eh    ::
         :: gradient norm              0.146104690443 Eh/a0 ::
         :: HOMO-LUMO gap              0.374605241523 eV    ::
         ::.................................................::
         :: SCC energy               -96.432089437443 Eh    ::
         :: -> isotropic ES            0.241294293724 Eh    ::
         :: -> anisotropic ES         -0.022747679516 Eh    ::
         :: -> anisotropic XC          0.040025881897 Eh    ::
         :: -> dispersion             -0.068891354089 Eh    ::
         :: -> Gsolv                  -0.095066529966 Eh    ::
         ::    -> Gelec               -0.091169208116 Eh    ::
         ::    -> Gsasa                0.003258486138 Eh    ::
         ::    -> Ghb                 -0.008236567686 Eh    ::
         ::    -> Gshift               0.001080759698 Eh    ::
         :: repulsion energy           1.148505896932 Eh    ::
         :: add. restraining           0.000000000000 Eh    ::
         :: total charge               1.000000000900 e     ::
         :::::::::::::::::::::::::::::::::::::::::::::::::::::

           -------------------------------------------------
          |                Property Printout                |
           -------------------------------------------------

    * Orbital Energies and Occupations

         #    Occupation            Energy/Eh            Energy/eV
      -------------------------------------------------------------
         1        2.0000           -0.8013079             -21.8047
       ...           ...                  ...                  ...
        73        2.0000           -0.4614814             -12.5575
        74        2.0000           -0.4524014             -12.3105
        75        2.0000           -0.4453772             -12.1193
        76        2.0000           -0.4432364             -12.0611
        77        1.9999           -0.4374691             -11.9041
        78        1.9998           -0.4357142             -11.8564
        79        1.9989           -0.4275913             -11.6354
        80        1.9976           -0.4236793             -11.5289
        81        1.9959           -0.4212443             -11.4626
        82        1.9935           -0.4189883             -11.4013
        83        1.9874           -0.4158276             -11.3152
        84        1.9802           -0.4136648             -11.2564
        85        1.6426           -0.3990446             -10.8586 (HOMO)
        86        0.4043           -0.3852781             -10.4839 (LUMO)
        87                         -0.2795957              -7.6082
        88                         -0.2655313              -7.2255
        89                         -0.2521519              -6.8614
        90                         -0.2451645              -6.6713
        91                         -0.2437677              -6.6333
        92                         -0.2387093              -6.4956
        93                         -0.2333408              -6.3495
        94                         -0.1845505              -5.0219
        95                         -0.1725834              -4.6962
        96                         -0.1563616              -4.2548
       ...                                ...                  ...
       165                          1.0308399              28.0506
      -------------------------------------------------------------
                  HL-Gap            0.0137665 Eh            0.3746 eV
             Fermi-level           -0.3917993 Eh          -10.6614 eV

     #   Z          covCN         q      C6AA      α(0)
     1   6 C        2.748     0.273    22.383     7.747
     2   7 N        2.692    -0.072    22.636     7.066
     3   6 C        2.877     0.096    25.867     8.338
     4   6 C        3.684     0.070    19.609     6.340
     5   6 C        3.804    -0.073    21.901     6.662
     6   6 C        2.960     0.033    27.251     8.562
     7   6 C        2.924    -0.033    28.829     8.805
     8   6 C        2.925    -0.026    28.660     8.779
     9   6 C        2.901    -0.024    28.604     8.769
    10   6 C        2.924    -0.030    28.757     8.794
    11   6 C        2.926    -0.041    29.008     8.832
    12   8 O        1.706    -0.247    18.100     5.744
    13   8 O        0.856    -0.420    22.086     6.301
    14   6 C        2.709     0.351    21.037     7.508
    15   6 C        3.747    -0.135    23.166     6.865
    16   6 C        3.813    -0.005    20.659     6.469
    17   8 O        0.859    -0.393    21.547     6.224
    18   6 C        3.788    -0.056    21.590     6.618
    19  16 S        1.952     0.037   139.562    19.883
    20   6 C        3.793    -0.074    21.924     6.668
    21   6 C        3.837     0.029    20.067     6.373
    22   7 N        2.728    -0.255    26.618     7.663
    23  16 S        3.765     1.158   102.242    17.018
    24   6 C        2.954    -0.091    30.288     9.027
    25   6 C        2.950    -0.033    28.833     8.807
    26   6 C        2.935    -0.035    28.873     8.812
    27   6 C        2.949     0.036    27.198     8.554
    28   6 C        2.938    -0.038    28.941     8.823
    29   6 C        2.930    -0.030    28.758     8.795
    30   8 O        0.860    -0.650    27.377     7.015
    31   8 O        0.860    -0.636    27.031     6.971
    32   6 C        3.750    -0.140    23.263     6.879
    33   1 H        0.860     0.272     0.804     1.404
    34   1 H        0.924     0.070     2.085     2.258
    35   1 H        0.923     0.075     2.034     2.230
    36   1 H        0.924     0.121     1.604     1.981
    37   1 H        0.924     0.137     1.482     1.904
    38   1 H        0.925     0.058     2.219     2.329
    39   1 H        0.924     0.049     2.332     2.388
    40   1 H        0.924     0.060     2.202     2.320
    41   1 H        0.925     0.062     2.180     2.309
    42   1 H        0.925     0.059     2.207     2.323
    43   1 H        0.924     0.074     2.045     2.236
    44   1 H        0.924     0.073     2.050     2.239
    45   1 H        0.924     0.070     2.083     2.257
    46   1 H        0.924     0.068     2.107     2.270
    47   1 H        0.924     0.079     1.990     2.206
    48   1 H        0.922     0.110     1.700     2.039
    49   1 H        0.924     0.116     1.649     2.008
    50   1 H        0.924     0.134     1.506     1.919
    51   1 H        0.924     0.126     1.565     1.957
    52   1 H        0.924     0.120     1.610     1.984
    53   1 H        0.925     0.072     2.064     2.246
    54   1 H        0.925     0.080     1.981     2.201
    55   1 H        0.926     0.074     2.043     2.235
    56   1 H        0.925     0.061     2.187     2.313
    57   1 H        0.924     0.071     2.076     2.253
    58   1 H        0.923     0.079     1.990     2.206
    59   1 H        0.924     0.088     1.896     2.153

 Mol. C6AA /au·bohr⁶  :      43369.325951
 Mol. C8AA /au·bohr⁸  :    1117154.103180
 Mol. α(0) /au        :        323.881924


Wiberg/Mayer (AO) data.
largest (>0.10) Wiberg bond orders for each atom

 ---------------------------------------------------------------------------
     #   Z sym  total        # sym  WBO       # sym  WBO       # sym  WBO
 ---------------------------------------------------------------------------
     1   6 C    3.891 --    17 O    1.741     2 N    1.145    21 C    0.931
     2   7 N    3.553 --     3 C    1.300     1 C    1.145    33 H    0.863
                            17 O    0.101
     3   6 C    3.650 --     2 N    1.300     5 C    1.061    14 C    1.029
     4   6 C    3.905 --    15 C    1.012    34 H    0.963    35 H    0.957
                            12 O    0.933
     5   6 C    3.948 --     3 C    1.061     6 C    0.944    36 H    0.938
                            37 H    0.914
     6   6 C    3.940 --     7 C    1.396    11 C    1.388     5 C    0.944
     7   6 C    3.968 --     8 C    1.434     6 C    1.396    38 H    0.967
                            10 C    0.107
     8   6 C    3.972 --     7 C    1.434     9 C    1.431    39 H    0.966
                            11 C    0.102
     9   6 C    3.965 --     8 C    1.431    10 C    1.425    40 H    0.966
    10   6 C    3.974 --    11 C    1.442     9 C    1.425    41 H    0.966
                             7 C    0.107
    11   6 C    3.970 --    10 C    1.442     6 C    1.388    42 H    0.966
                             8 C    0.102
    12   8 O    2.306 --    14 C    1.125     4 C    0.933    13 O    0.188
    13   8 O    1.982 --    14 C    1.677    12 O    0.188
    14   6 C    3.906 --    13 O    1.677    12 O    1.125     3 C    1.029
    15   6 C    3.982 --     4 C    1.012    45 H    0.984    43 H    0.981
                            44 H    0.981
    16   6 C    3.946 --    18 C    0.995    22 N    0.986    47 H    0.959
                            46 H    0.956
    17   8 O    1.989 --     1 C    1.741     2 N    0.101
    18   6 C    3.945 --    19 S    0.998    16 C    0.995    49 H    0.959
                            48 H    0.952
    19  16 S    2.141 --    18 C    0.998    20 C    0.997
    20   6 C    3.945 --    19 S    0.997    21 C    0.987    50 H    0.946
                            51 H    0.944
    21   6 C    3.958 --    22 N    0.991    20 C    0.987     1 C    0.931
                            52 H    0.927
    22   7 N    3.188 --    21 C    0.991    16 C    0.986    23 S    0.883
    23  16 S    4.829 --    31 O    1.569    30 O    1.545    22 N    0.883
                            24 C    0.738
    24   6 C    3.939 --    29 C    1.413    25 C    1.399    23 S    0.738
    25   6 C    3.980 --    26 C    1.448    24 C    1.399    53 H    0.964
                            28 C    0.107
    26   6 C    3.982 --    25 C    1.448    27 C    1.399    54 H    0.963
                            29 C    0.106
    27   6 C    3.977 --    28 C    1.404    26 C    1.399    32 C    1.027
    28   6 C    3.982 --    29 C    1.435    27 C    1.404    55 H    0.962
                            25 C    0.107
    29   6 C    3.983 --    28 C    1.435    24 C    1.413    56 H    0.965
                            26 C    0.106
    30   8 O    1.841 --    23 S    1.545    31 O    0.104
    31   8 O    1.860 --    23 S    1.569    30 O    0.104
    32   6 C    3.984 --    27 C    1.027    57 H    0.981    59 H    0.965
                            58 H    0.962
    33   1 H    0.926 --     2 N    0.863
    34   1 H    0.991 --     4 C    0.963
    35   1 H    0.989 --     4 C    0.957
    36   1 H    0.983 --     5 C    0.938
    37   1 H    0.968 --     5 C    0.914
    38   1 H    0.996 --     7 C    0.967
    39   1 H    0.994 --     8 C    0.966
    40   1 H    0.994 --     9 C    0.966
    41   1 H    0.995 --    10 C    0.966
    42   1 H    0.996 --    11 C    0.966
    43   1 H    0.994 --    15 C    0.981
    44   1 H    0.994 --    15 C    0.981
    45   1 H    0.994 --    15 C    0.984
    46   1 H    0.986 --    16 C    0.956
    47   1 H    0.994 --    16 C    0.959
    48   1 H    0.967 --    18 C    0.952
    49   1 H    0.985 --    18 C    0.959
    50   1 H    0.964 --    20 C    0.946
    51   1 H    0.981 --    20 C    0.944
    52   1 H    0.984 --    21 C    0.927
    53   1 H    0.994 --    25 C    0.964
    54   1 H    0.993 --    26 C    0.963
    55   1 H    0.993 --    28 C    0.962
    56   1 H    0.996 --    29 C    0.965
    57   1 H    0.995 --    32 C    0.981
    58   1 H    0.992 --    32 C    0.962
    59   1 H    0.991 --    32 C    0.965
 ---------------------------------------------------------------------------

Topologies differ in total number of bonds
Writing topology from bond orders to xtbtopo.mol

molecular dipole:
                 x           y           z       tot (Debye)
 q only:       49.534      33.514      85.839
   full:       49.941      33.257      86.055     266.649
molecular quadrupole (traceless):
                xx          xy          yy          xz          yz          zz
 q only:    -1830.630    2557.086   -3743.796    6406.356    4368.027    5574.426
  q+dip:    -1799.313    2553.450   -3801.816    6471.049    4338.856    5601.128
   full:    -1798.577    2553.077   -3801.898    6470.822    4339.397    5600.475


           -------------------------------------------------
          | TOTAL ENERGY              -95.283583540511 Eh   |
          | GRADIENT NORM               0.146104690443 Eh/α |
          | HOMO-LUMO GAP               0.374605241523 eV   |
           -------------------------------------------------

------------------------------------------------------------------------
Note: The following floating-point exceptions are signalling: IEEE_UNDERFLOW_FLAG IEEE_DENORMAL
normal termination of xtb
 * finished run on 2026/01/05 at 09:06:41.439     
------------------------------------------------------------------------
 total:
 * wall-time:     0 d,  0 h,  0 min,  0.231 sec
 *  cpu-time:     0 d,  0 h,  0 min,  3.449 sec
 * ratio c/w:    14.938 speedup
 SCF:
 * wall-time:     0 d,  0 h,  0 min,  0.208 sec
 *  cpu-time:     0 d,  0 h,  0 min,  3.113 sec
 * ratio c/w:    14.943 speedup

