      -----------------------------------------------------------      
     |                   =====================                   |     
     |                           x T B                           |     
     |                   =====================                   |     
     |                         S. Grimme                         |     
     |          Mulliken Center for Theoretical Chemistry        |     
     |                    University of Bonn                     |     
      -----------------------------------------------------------      

   * xtb version 6.7.1 (edcfbbe) compiled by 'conda@c0858423619e' on 2025-09-04

   xtb is free software: you can redistribute it and/or modify it under
   the terms of the GNU Lesser General Public License as published by
   the Free Software Foundation, either version 3 of the License, or
   (at your option) any later version.
   
   xtb is distributed in the hope that it will be useful,
   but WITHOUT ANY WARRANTY; without even the implied warranty of
   MERCHANTABILITY or FITNESS FOR A PARTICULAR PURPOSE.  See the
   GNU Lesser General Public License for more details.
   
   Cite this work as:
   * C. Bannwarth, E. Caldeweyher, S. Ehlert, A. Hansen, P. Pracht,
     J. Seibert, S. Spicher, S. Grimme, WIREs Comput. Mol. Sci., 2020, 11,
     e01493. DOI: 10.1002/wcms.1493
   
   for GFN2-xTB:
   * C. Bannwarth, S. Ehlert and S. Grimme., J. Chem. Theory Comput., 2019,
     15, 1652-1671. DOI: 10.1021/acs.jctc.8b01176
   for GFN1-xTB:
   * S. Grimme, C. Bannwarth, P. Shushkov, J. Chem. Theory Comput., 2017,
     13, 1989-2009. DOI: 10.1021/acs.jctc.7b00118
   for GFN0-xTB:
   * P. Pracht, E. Caldeweyher, S. Ehlert, S. Grimme, ChemRxiv, 2019, preprint.
     DOI: 10.26434/chemrxiv.8326202.v1
   for GFN-FF:
   * S. Spicher and S. Grimme, Angew. Chem. Int. Ed., 2020, 59, 15665-15673.
     DOI: 10.1002/anie.202004239
   
   for ALPB and GBSA implicit solvation:
   * S. Ehlert, M. Stahn, S. Spicher, S. Grimme, J. Chem. Theory Comput.,
     2021, 17, 4250-4261. DOI: 10.1021/acs.jctc.1c00471
   
   for ddCOSMO and CPCM-X implicit solvation:
   * M. Stahn, S. Ehlert, S. Grimme, J. Phys. Chem. A,
     2023, XX, XXXX-XXXX. DOI: 10.1021/acs.jpca.3c04382
   
   for DFT-D4:
   * E. Caldeweyher, C. Bannwarth and S. Grimme, J. Chem. Phys., 2017,
     147, 034112. DOI: 10.1063/1.4993215
   * E. Caldeweyher, S. Ehlert, A. Hansen, H. Neugebauer, S. Spicher,
     C. Bannwarth and S. Grimme, J. Chem. Phys., 2019, 150, 154122.
     DOI: 10.1063/1.5090222
   * E. Caldeweyher, J.-M. Mewes, S. Ehlert and S. Grimme, Phys. Chem. Chem. Phys.
     2020, 22, 8499-8512. DOI: 10.1039/D0CP00502A
   
   for sTDA-xTB:
   * S. Grimme and C. Bannwarth, J. Chem. Phys., 2016, 145, 054103.
     DOI: 10.1063/1.4959605
   
   in the mass-spec context:
   * V. Asgeirsson, C. Bauer and S. Grimme, Chem. Sci., 2017, 8, 4879.
     DOI: 10.1039/c7sc00601b
   * J. Koopman and S. Grimme, ACS Omega 2019, 4, 12, 15120-15133.
     DOI: 10.1021/acsomega.9b02011
   
   for metadynamics refer to:
   * S. Grimme, J. Chem. Theory Comput., 2019, 155, 2847-2862
     DOI: 10.1021/acs.jctc.9b00143
   
   for SPH calculations refer to:
   * S. Spicher and S. Grimme, J. Chem. Theory Comput., 2021, 17, 1701-1714
     DOI: 10.1021/acs.jctc.0c01306
   
   for ONIOM refer to:
   * C. Plett, A. Katbashev, S. Ehlert, S. Grimme, M. Bursch,
     Phys. Chem. Chem. Phys., 2023, 25, 17860-17868. DOI: 10.1039/D3CP02178E
   
   for DIPRO refer to:
   * J. Kohn, N. Gildemeister, S. Grimme, D. Fazzi, A. Hansen,
     J. Chem. Phys., 2023, just accepted.
   
   for PTB refer to:
   * S. Grimme, M. Mueller, A. Hansen, J. Chem. Phys., 2023, 158, 124111.
     DOI: 10.1063/5.0137838
   
   with help from (in alphabetical order)
   P. Atkinson, C. Bannwarth, F. Bohle, G. Brandenburg, E. Caldeweyher
   M. Checinski, S. Dohm, S. Ehlert, S. Ehrlich, I. Gerasimov, C. Hölzer
   A. Katbashev, J. Kohn, J. Koopman, C. Lavigne, S. Lehtola, F. März, M. Müller,
   F. Musil, H. Neugebauer, J. Pisarek, C. Plett, P. Pracht, F. Pultar,
   J. Seibert, P. Shushkov, S. Spicher, M. Stahn, M. Steiner, T. Strunk,
   J. Stückrath, T. Rose, and J. Unsleber
   
 * started run on 2026/01/05 at 09:07:28.758     
   ID    Z sym.   atoms
    1    6 C      1, 3-11, 14-16, 18, 20, 21, 24-29, 32, 62, 64, 67, 68, 70,
                  72, 75, 77, 79, 83, 85, 88, 89, 91, 93, 95, 97, 99, 103,
                  105, 108, 111, 115, 117, 120, 123, 128, 135, 139, 141, 144,
                  145, 147, 149, 151, 153, 155, 159, 161, 164, 167, 170, 177,
                  181, 183, 186, 187, 189, 191, 193, 195, 197, 201, 203, 206,
                  209, 212, 216, 218, 220, 224, 228, 232, 234, 237, 238, 240,
                  242, 245, 247, 249, 253, 255, 258, 260, 264, 266, 270, 272,
                  274, 278, 281, 285, 289, 291, 293, 297, 300, 304
    2    7 N      2, 22, 60, 81, 101, 113, 126, 129, 132, 137, 157, 173, 179,
                  199, 214, 230, 251, 259, 262, 268, 287
    3    8 O      12, 13, 17, 30, 31, 73, 80, 100, 109, 110, 112, 136, 156,
                  178, 198, 210, 211, 213, 229, 243, 250, 267, 286, 305
    4   16 S      19, 23
    5    1 H      33-59, 61, 63, 65, 66, 69, 71, 74, 76, 78, 82, 84, 86, 87,
                  90, 92, 94, 96, 98, 102, 104, 106, 107, 114, 116, 118, 119,
                  121, 122, 124, 125, 127, 130, 131, 133, 134, 138, 140, 142,
                  143, 146, 148, 150, 152, 154, 158, 160, 162, 163, 165, 166,
                  168, 169, 171, 172, 174-176, 180, 182, 184, 185, 188, 190,
                  192, 194, 196, 200, 202, 204, 205, 207, 208, 215, 217, 219,
                  221-223, 225-227, 231, 233, 235, 236, 239, 241, 244, 246,
                  248, 252, 254, 256, 257, 261, 263, 265, 269, 271, 273,
                  275-277, 279, 280, 282-284, 288, 290, 292, 294-296, 298,
                  299, 301-303, 306-321

           -------------------------------------------------
          |                Calculation Setup                |
           -------------------------------------------------

          program call               : xtb /home/antonio_mesquita/Documentos/gmx_ISA_project/testes_arquivos_primeiros/gmx_ISA_testes/testes_qm_xtb/QM_analysis/QM_FRAMES_CAPPED/frame_400ps/complex_capped_400ps.xyz --gfn 2 --alpb water --chrg 1 --etemp 1500 --cycles 1000
          coordinate file            : /home/antonio_mesquita/Documentos/gmx_ISA_project/testes_arquivos_primeiros/gmx_ISA_testes/testes_qm_xtb/QM_analysis/QM_FRAMES_CAPPED/frame_400ps/complex_capped_400ps.xyz
          omp threads                :                    16


molecular fragmentation (1/2 indicates fragments):
111111111111111111111111111111111111111111111111111111111112222222222222
222222222222222222222222222222222222222222222222222222222222222222222222
222222222222222222222222222222222222222222222222222222222222222222222222
222222222222222222222222222222222222222222222222222222222222222222222222
222222222222222222222222222222222
# atoms in fragment 1/2:    59   262
 fragment masses (1/2) :      475.60     1775.14
CMA distance (Bohr)    :   8.769
constraining FC (au)   :  0.0500

           -------------------------------------------------
          |                 G F N 2 - x T B                 |
           -------------------------------------------------

        Reference                      10.1021/acs.jctc.8b01176
      * Hamiltonian:
        H0-scaling (s, p, d)           1.850000    2.230000    2.230000
        zeta-weighting                 0.500000
      * Dispersion:
        s8                             2.700000
        a1                             0.520000
        a2                             5.000000
        s9                             5.000000
      * Repulsion:
        kExp                           1.500000    1.000000
        rExp                           1.000000
      * Coulomb:
        alpha                          2.000000
        third order                    shell-resolved
        anisotropic                    true
        a3                             3.000000
        a5                             4.000000
        cn-shift                       1.200000
        cn-exp                         4.000000
        max-rad                        5.000000

      * Solvation model:               ALPB
        Solvent                        water
        Parameter file                 internal GFN2-xTB/ALPB
        Dielectric constant                8.0200E+01
        Reference state                gsolv [1 M gas/solution]
        Free energy shift                  1.0808E-03 Eh       6.7819E-01 kcal/mol
        Temperature                        2.9815E+02 K
        Density                            1.0000E+00 kg/L
        Solvent mass                       1.8000E+01 g/mol
        Interaction kernel             P16
        Born radius scaling (c1)           1.4744E+00
        Born radii integrator          GBOBC
        Born offset                        0.0000E+00 a0       0.0000E+00 AA
        H-bond correction              true
        Ion screening                  false
        Surface tension                    1.0000E-05 Eh       1.5569E+01 dyn/cm
        Grid points                               230 per atom

          ...................................................
          :                      SETUP                      :
          :.................................................:
          :  # basis functions                 810          :
          :  # atomic orbitals                 808          :
          :  # shells                          482          :
          :  # electrons                       870          :
          :  max. iterations                   250          :
          :  Hamiltonian                  GFN2-xTB          :
          :  restarted?                      false          :
          :  GBSA solvation                   true          :
          :  PC potential                    false          :
          :  electronic temp.         1500.0000000     K    :
          :  accuracy                    1.0000000          :
          :  -> integral cutoff          0.2500000E+02      :
          :  -> integral neglect         0.1000000E-07      :
          :  -> SCF convergence          0.1000000E-05 Eh   :
          :  -> wf. convergence          0.1000000E-03 e    :
          :  Broyden damping             0.4000000          :
          :  net charge                          1          :
          :  unpaired electrons                  0          :
          ...................................................

 iter      E             dE          RMSdq      gap      omega  full diag
   1   -492.3714839 -0.492371E+03  0.449E+00    0.01       0.0  T
   2   -493.1723592 -0.800875E+00  0.250E+00    1.24       1.0  T
   3   -493.0327025  0.139657E+00  0.160E+00    0.03       1.0  T
   4   -493.2678760 -0.235174E+00  0.786E-01    0.82       1.0  T
   5   -493.3279230 -0.600470E-01  0.569E-01    0.04       1.0  T
   6   -493.4393689 -0.111446E+00  0.175E-01    0.25       1.0  T
   7   -493.4378262  0.154267E-02  0.153E-01    0.29       1.0  T
   8   -493.4416648 -0.383856E-02  0.891E-02    0.25       1.0  T
   9   -493.4426212 -0.956467E-03  0.597E-02    0.30       1.0  T
  10   -493.4432252 -0.603997E-03  0.385E-02    0.30       1.0  T
  11   -493.4434659 -0.240669E-03  0.226E-02    0.30       1.0  T
  12   -493.4436023 -0.136391E-03  0.104E-02    0.30       1.0  T
  13   -493.4436008  0.147535E-05  0.894E-03    0.31       1.0  T
  14   -493.4436199 -0.190740E-04  0.473E-03    0.30       1.2  T
  15   -493.4436229 -0.294794E-05  0.295E-03    0.30       1.9  T
  16   -493.4436245 -0.161589E-05  0.157E-03    0.30       3.6  T
  17   -493.4436249 -0.429581E-06  0.978E-04    0.30       5.7  T
  18   -493.4436251 -0.162342E-06  0.546E-04    0.30      10.2  T

   *** convergence criteria satisfied after 18 iterations ***

         #    Occupation            Energy/Eh            Energy/eV
      -------------------------------------------------------------
         1        2.0000           -0.7881824             -21.4475
       ...           ...                  ...                  ...
       429        1.9009           -0.3593049              -9.7772
       430        1.8871           -0.3586531              -9.7594
       431        1.8865           -0.3586234              -9.7586
       432        1.8797           -0.3583321              -9.7507
       433        1.8702           -0.3579445              -9.7402
       434        1.8488           -0.3571656              -9.7190
       435        1.8311           -0.3565959              -9.7035 (HOMO)
       436        1.0151           -0.3454167              -9.3993 (LUMO)
       437        0.0001           -0.2955688              -8.0428
       438        0.0000           -0.2938065              -7.9949
       439        0.0000           -0.2920915              -7.9482
       440        0.0000           -0.2920219              -7.9463
       ...           ...                  ...                  ...
       808                          1.0574929              28.7758
      -------------------------------------------------------------
                  HL-Gap            0.0111792 Eh            0.3042 eV
             Fermi-level           -0.3452733 Eh           -9.3954 eV

 SCC (total)                   0 d,  0 h,  0 min,  3.947 sec
 SCC setup                      ...        0 min,  0.030 sec (  0.758%)
 Dispersion                     ...        0 min,  0.042 sec (  1.065%)
 classical contributions        ...        0 min,  0.005 sec (  0.124%)
 integral evaluation            ...        0 min,  0.051 sec (  1.285%)
 iterations                     ...        0 min,  3.463 sec ( 87.759%)
 molecular gradient             ...        0 min,  0.345 sec (  8.749%)
 printout                       ...        0 min,  0.010 sec (  0.259%)

         :::::::::::::::::::::::::::::::::::::::::::::::::::::
         ::                     SUMMARY                     ::
         :::::::::::::::::::::::::::::::::::::::::::::::::::::
         :: total energy            -487.264669353873 Eh    ::
         :: total w/o Gsasa/hb      -487.219524983790 Eh    ::
         :: gradient norm              0.347190852320 Eh/a0 ::
         :: HOMO-LUMO gap              0.304201044220 eV    ::
         ::.................................................::
         :: SCC energy              -493.419774462715 Eh    ::
         :: -> isotropic ES            1.328412552562 Eh    ::
         :: -> anisotropic ES         -0.037320330293 Eh    ::
         :: -> anisotropic XC          0.213968058376 Eh    ::
         :: -> dispersion             -0.387132267827 Eh    ::
         :: -> Gsolv                  -0.425893802991 Eh    ::
         ::    -> Gelec               -0.380749432908 Eh    ::
         ::    -> Gsasa                0.011475166363 Eh    ::
         ::    -> Ghb                 -0.057700296144 Eh    ::
         ::    -> Gshift               0.001080759698 Eh    ::
         :: repulsion energy           6.155105108842 Eh    ::
         :: add. restraining           0.000000000000 Eh    ::
         :: total charge               1.000000000000 e     ::
         :::::::::::::::::::::::::::::::::::::::::::::::::::::

           -------------------------------------------------
          |                Property Printout                |
           -------------------------------------------------

    * Orbital Energies and Occupations

         #    Occupation            Energy/Eh            Energy/eV
      -------------------------------------------------------------
         1        2.0000           -0.7881824             -21.4475
       ...           ...                  ...                  ...
       423        1.9977           -0.3774482             -10.2709
       424        1.9971           -0.3762377             -10.2379
       425        1.9950           -0.3736755             -10.1682
       426        1.9764           -0.3663079              -9.9677
       427        1.9720           -0.3654918              -9.9455
       428        1.9439           -0.3621153              -9.8537
       429        1.9009           -0.3593049              -9.7772
       430        1.8871           -0.3586531              -9.7594
       431        1.8865           -0.3586234              -9.7586
       432        1.8797           -0.3583321              -9.7507
       433        1.8702           -0.3579445              -9.7402
       434        1.8488           -0.3571656              -9.7190
       435        1.8311           -0.3565959              -9.7035 (HOMO)
       436        1.0151           -0.3454167              -9.3993 (LUMO)
       437        0.0001           -0.2955688              -8.0428
       438        0.0000           -0.2938065              -7.9949
       439        0.0000           -0.2920915              -7.9482
       440        0.0000           -0.2920219              -7.9463
       441        0.0000           -0.2910914              -7.9210
       442        0.0000           -0.2852310              -7.7615
       443        0.0000           -0.2795869              -7.6079
       444        0.0000           -0.2795192              -7.6061
       445                         -0.2652428              -7.2176
       446                         -0.2525214              -6.8715
       ...                                ...                  ...
       808                          1.0574929              28.7758
      -------------------------------------------------------------
                  HL-Gap            0.0111792 Eh            0.3042 eV
             Fermi-level           -0.3452733 Eh           -9.3954 eV

     #   Z          covCN         q      C6AA      α(0)
     1   6 C        2.744     0.263    22.571     7.779
     2   7 N        2.686    -0.118    23.581     7.212
     3   6 C        2.868     0.027    27.387     8.578
     4   6 C        3.688     0.067    19.632     6.342
     5   6 C        3.811    -0.067    21.776     6.642
     6   6 C        2.964     0.019    27.577     8.614
     7   6 C        2.906    -0.040    29.004     8.831
     8   6 C        2.915    -0.024    28.596     8.769
     9   6 C        2.908    -0.026    28.655     8.777
    10   6 C        2.911    -0.033    28.820     8.803
    11   6 C        2.920    -0.046    29.148     8.853
    12   8 O        1.704    -0.280    18.651     5.831
    13   8 O        0.857    -0.482    23.379     6.483
    14   6 C        2.710     0.331    21.375     7.568
    15   6 C        3.748    -0.132    23.102     6.856
    16   6 C        3.781     0.017    20.305     6.419
    17   8 O        0.858    -0.486    23.474     6.496
    18   6 C        3.788    -0.042    21.331     6.578
    19  16 S        1.950    -0.124   146.240    20.353
    20   6 C        3.790    -0.049    21.457     6.597
    21   6 C        3.886     0.036    19.917     6.345
    22   7 N        2.728    -0.291    27.496     7.788
    23  16 S        3.798     1.167   101.992    16.998
    24   6 C        2.965    -0.089    30.230     9.018
    25   6 C        2.958    -0.030    28.758     8.796
    26   6 C        2.920    -0.024    28.612     8.772
    27   6 C        2.956     0.042    27.064     8.533
    28   6 C        2.922    -0.033    28.819     8.803
    29   6 C        2.932    -0.025    28.632     8.775
    30   8 O        0.859    -0.669    27.876     7.079
    31   8 O        0.860    -0.666    27.792     7.068
    32   6 C        3.751    -0.124    22.931     6.829
    33   1 H        0.861     0.257     0.857     1.450
    34   1 H        0.922     0.086     1.923     2.168
    35   1 H        0.924     0.076     2.017     2.221
    36   1 H        0.923     0.078     1.997     2.210
    37   1 H        0.923     0.071     2.078     2.254
    38   1 H        0.925     0.064     2.148     2.292
    39   1 H        0.926     0.038     2.469     2.457
    40   1 H        0.925     0.017     2.779     2.607
    41   1 H        0.924     0.016     2.801     2.617
    42   1 H        0.925     0.039     2.469     2.457
    43   1 H        0.924     0.045     2.381     2.413
    44   1 H        0.924     0.072     2.060     2.245
    45   1 H        0.925     0.057     2.234     2.337
    46   1 H        0.923     0.031     2.574     2.509
    47   1 H        0.923     0.059     2.212     2.326
    48   1 H        0.924     0.088     1.900     2.156
    49   1 H        0.924     0.086     1.916     2.164
    50   1 H        0.923     0.098     1.803     2.100
    51   1 H        0.923     0.086     1.916     2.164
    52   1 H        0.922     0.079     1.992     2.207
    53   1 H        0.925     0.067     2.122     2.278
    54   1 H        0.925     0.062     2.176     2.307
    55   1 H        0.925     0.077     2.008     2.216
    56   1 H        0.925     0.060     2.196     2.317
    57   1 H        0.923     0.068     2.113     2.273
    58   1 H        0.924     0.088     1.901     2.156
    59   1 H        0.924     0.061     2.190     2.314
    60   7 N        2.632    -0.333    28.585     7.941
    61   1 H        0.860     0.185     1.188     1.707
    62   6 C        3.785     0.037    19.966     6.365
    63   1 H        0.925     0.089     1.893     2.152
    64   6 C        3.815    -0.080    22.021     6.679
    65   1 H        0.924     0.076     2.025     2.225
    66   1 H        0.925     0.057     2.229     2.335
    67   6 C        2.971     0.004    27.920     8.667
    68   6 C        2.907    -0.048    29.186     8.858
    69   1 H        0.926     0.039     2.467     2.456
    70   6 C        2.923    -0.066    29.640     8.928
    71   1 H        0.925     0.019     2.743     2.590
    72   6 C        2.835     0.140    24.933     8.183
    73   8 O        1.659    -0.463    22.113     6.348
    74   1 H        0.805     0.340     0.611     1.228
    75   6 C        2.909    -0.066    29.632     8.926
    76   1 H        0.925     0.064     2.147     2.292
    77   6 C        2.915    -0.040    28.984     8.828
    78   1 H        0.925     0.061     2.184     2.311
    79   6 C        2.759     0.208    23.596     7.955
    80   8 O        0.856    -0.380    21.294     6.187
    81   7 N        2.632    -0.349    28.993     7.997
    82   1 H        0.861     0.172     1.261     1.759
    83   6 C        3.786     0.034    20.019     6.373
    84   1 H        0.924     0.070     2.089     2.260
    85   6 C        3.810    -0.072    21.869     6.657
    86   1 H        0.924     0.065     2.141     2.288
    87   1 H        0.925     0.055     2.258     2.350
    88   6 C        2.957     0.006    27.876     8.660
    89   6 C        2.929    -0.043    29.067     8.842
    90   1 H        0.926     0.039     2.458     2.452
    91   6 C        2.903    -0.037    28.925     8.819
    92   1 H        0.926     0.047     2.364     2.404
    93   6 C        2.916    -0.039    28.970     8.826
    94   1 H        0.925     0.038     2.478     2.462
    95   6 C        2.910    -0.038    28.936     8.821
    96   1 H        0.926     0.031     2.565     2.505
    97   6 C        2.917    -0.042    29.040     8.837
    98   1 H        0.926     0.029     2.608     2.525
    99   6 C        2.754     0.268    22.466     7.762
   100   8 O        0.861    -0.521    24.252     6.603
   101   7 N        2.695    -0.153    24.319     7.324
   102   1 H        0.860     0.212     1.047     1.603
   103   6 C        3.793     0.044    19.839     6.343
   104   1 H        0.924     0.092     1.857     2.131
   105   6 C        3.815    -0.084    22.097     6.690
   106   1 H        0.924     0.046     2.373     2.409
   107   1 H        0.925     0.062     2.172     2.305
   108   6 C        2.688     0.360    20.894     7.481
   109   8 O        0.857    -0.610    26.376     6.886
   110   8 O        0.857    -0.596    26.020     6.839
   111   6 C        2.758     0.207    23.614     7.958
   112   8 O        0.857    -0.361    20.911     6.131
   113   7 N        2.632    -0.350    29.011     7.999
   114   1 H        0.860     0.190     1.158     1.686
   115   6 C        3.785     0.033    20.035     6.376
   116   1 H        0.924     0.093     1.849     2.126
   117   6 C        3.813    -0.078    21.981     6.673
   118   1 H        0.925     0.074     2.038     2.233
   119   1 H        0.924     0.062     2.173     2.305
   120   6 C        3.805    -0.087    22.151     6.700
   121   1 H        0.924     0.069     2.092     2.262
   122   1 H        0.925     0.065     2.142     2.289
   123   6 C        3.740    -0.030    21.180     6.566
   124   1 H        0.924     0.084     1.934     2.175
   125   1 H        0.925     0.098     1.806     2.101
   126   7 N        2.694    -0.141    24.049     7.283
   127   1 H        0.860     0.237     0.934     1.514
   128   6 C        2.734     0.238    23.012     7.854
   129   7 N        2.650    -0.270    26.998     7.717
   130   1 H        0.861     0.235     0.942     1.521
   131   1 H        0.860     0.237     0.936     1.515
   132   7 N        2.659    -0.265    26.872     7.699
   133   1 H        0.860     0.242     0.916     1.499
   134   1 H        0.861     0.236     0.941     1.520
   135   6 C        2.759     0.200    23.745     7.980
   136   8 O        0.856    -0.389    21.456     6.210
   137   7 N        2.642    -0.328    28.454     7.922
   138   1 H        0.860     0.189     1.164     1.690
   139   6 C        3.787     0.032    20.045     6.377
   140   1 H        0.924     0.068     2.110     2.272
   141   6 C        3.813    -0.076    21.941     6.667
   142   1 H        0.924     0.073     2.049     2.239
   143   1 H        0.924     0.090     1.882     2.145
   144   6 C        2.954     0.013    27.721     8.636
   145   6 C        2.922    -0.037    28.922     8.819
   146   1 H        0.926     0.051     2.304     2.374
   147   6 C        2.908    -0.036    28.890     8.813
   148   1 H        0.926     0.040     2.451     2.448
   149   6 C        2.914    -0.041    29.006     8.832
   150   1 H        0.925     0.014     2.833     2.632
   151   6 C        2.906    -0.036    28.889     8.813
   152   1 H        0.926     0.008     2.927     2.676
   153   6 C        2.925    -0.045    29.130     8.851
   154   1 H        0.925     0.040     2.450     2.448
   155   6 C        2.755     0.268    22.468     7.762
   156   8 O        0.860    -0.508    23.964     6.563
   157   7 N        2.695    -0.158    24.415     7.339
   158   1 H        0.860     0.213     1.043     1.600
   159   6 C        3.802     0.017    20.281     6.412
   160   1 H        0.924     0.076     2.022     2.224
   161   6 C        3.804    -0.075    21.920     6.665
   162   1 H        0.924     0.060     2.203     2.321
   163   1 H        0.925     0.055     2.256     2.349
   164   6 C        3.806    -0.069    21.812     6.649
   165   1 H        0.924     0.062     2.174     2.306
   166   1 H        0.924     0.053     2.285     2.364
   167   6 C        3.803    -0.089    22.194     6.707
   168   1 H        0.925     0.091     1.870     2.138
   169   1 H        0.924     0.070     2.086     2.259
   170   6 C        3.735    -0.036    21.302     6.587
   171   1 H        0.925     0.099     1.791     2.093
   172   1 H        0.924     0.108     1.714     2.047
   173   7 N        3.489    -0.165    24.560     7.360
   174   1 H        0.860     0.308     0.690     1.302
   175   1 H        0.860     0.303     0.704     1.315
   176   1 H        0.860     0.314     0.672     1.285
   177   6 C        2.766     0.271    22.427     7.756
   178   8 O        0.857    -0.500    23.787     6.539
   179   7 N        2.691    -0.164    24.547     7.358
   180   1 H        0.860     0.229     0.970     1.543
   181   6 C        3.794     0.041    19.894     6.351
   182   1 H        0.924     0.096     1.819     2.109
   183   6 C        3.809    -0.057    21.588     6.614
   184   1 H        0.925     0.064     2.155     2.296
   185   1 H        0.924     0.046     2.373     2.409
   186   6 C        2.961     0.007    27.855     8.657
   187   6 C        2.910    -0.041    29.008     8.832
   188   1 H        0.926     0.028     2.619     2.531
   189   6 C        2.916    -0.035    28.866     8.810
   190   1 H        0.926     0.043     2.413     2.429
   191   6 C        2.913    -0.036    28.885     8.813
   192   1 H        0.926     0.050     2.325     2.384
   193   6 C        2.906    -0.036    28.885     8.813
   194   1 H        0.925     0.051     2.311     2.377
   195   6 C        2.920    -0.037    28.929     8.820
   196   1 H        0.926     0.030     2.592     2.518
   197   6 C        2.760     0.209    23.577     7.952
   198   8 O        0.856    -0.372    21.131     6.163
   199   7 N        2.629    -0.365    29.410     8.054
   200   1 H        0.860     0.175     1.245     1.748
   201   6 C        3.786     0.030    20.084     6.383
   202   1 H        0.925     0.057     2.233     2.337
   203   6 C        3.808    -0.050    21.471     6.596
   204   1 H        0.925     0.048     2.351     2.398
   205   1 H        0.924     0.036     2.499     2.472
   206   6 C        3.800    -0.082    22.074     6.689
   207   1 H        0.924     0.029     2.598     2.520
   208   1 H        0.924     0.042     2.422     2.434
   209   6 C        2.688     0.362    20.862     7.475
   210   8 O        0.859    -0.654    27.479     7.028
   211   8 O        0.858    -0.645    27.252     6.999
   212   6 C        2.751     0.263    22.571     7.779
   213   8 O        0.861    -0.534    24.539     6.642
   214   7 N        2.694    -0.163    24.518     7.354
   215   1 H        0.860     0.218     1.019     1.582
   216   6 C        3.796     0.029    20.088     6.382
   217   1 H        0.925     0.090     1.882     2.145
   218   6 C        3.857    -0.014    20.786     6.484
   219   1 H        0.925     0.053     2.288     2.366
   220   6 C        3.755    -0.102    22.496     6.763
   221   1 H        0.924     0.053     2.281     2.362
   222   1 H        0.924     0.032     2.562     2.503
   223   1 H        0.924     0.042     2.420     2.433
   224   6 C        3.754    -0.121    22.885     6.821
   225   1 H        0.924     0.043     2.409     2.427
   226   1 H        0.925     0.064     2.155     2.296
   227   1 H        0.924     0.053     2.279     2.361
   228   6 C        2.764     0.205    23.654     7.965
   229   8 O        0.856    -0.367    21.026     6.148
   230   7 N        2.631    -0.356    29.181     8.023
   231   1 H        0.860     0.187     1.176     1.699
   232   6 C        3.785     0.038    19.943     6.361
   233   1 H        0.926     0.088     1.901     2.156
   234   6 C        3.816    -0.075    21.926     6.664
   235   1 H        0.925     0.069     2.102     2.267
   236   1 H        0.924     0.063     2.161     2.299
   237   6 C        2.972     0.003    27.958     8.673
   238   6 C        2.912    -0.046    29.152     8.854
   239   1 H        0.925     0.056     2.252     2.347
   240   6 C        2.911    -0.076    29.894     8.966
   241   1 H        0.926     0.049     2.338     2.391
   242   6 C        2.830     0.145    24.843     8.168
   243   8 O        1.660    -0.452    21.888     6.316
   244   1 H        0.805     0.350     0.588     1.205
   245   6 C        2.918    -0.058    29.434     8.897
   246   1 H        0.925     0.036     2.497     2.471
   247   6 C        2.903    -0.040    28.996     8.829
   248   1 H        0.925     0.055     2.257     2.349
   249   6 C        2.759     0.201    23.717     7.975
   250   8 O        0.856    -0.390    21.490     6.215
   251   7 N        2.638    -0.319    28.205     7.888
   252   1 H        0.860     0.203     1.089     1.635
   253   6 C        3.787     0.044    19.853     6.346
   254   1 H        0.925     0.054     2.265     2.354
   255   6 C        3.809    -0.077    21.969     6.672
   256   1 H        0.924     0.061     2.184     2.311
   257   1 H        0.925     0.074     2.041     2.234
   258   6 C        3.267     0.051    25.631     8.169
   259   7 N        1.875    -0.318    29.087     7.995
   260   6 C        3.107     0.089    25.894     8.337
   261   1 H        0.925     0.042     2.426     2.436
   262   7 N        2.859    -0.104    23.266     7.164
   263   1 H        0.860     0.221     1.003     1.569
   264   6 C        2.948    -0.039    28.979     8.829
   265   1 H        0.926     0.054     2.272     2.357
   266   6 C        2.762     0.201    23.726     7.977
   267   8 O        0.859    -0.366    21.017     6.146
   268   7 N        2.631    -0.354    29.137     8.017
   269   1 H        0.860     0.173     1.257     1.756
   270   6 C        3.794     0.024    20.183     6.397
   271   1 H        0.924     0.057     2.232     2.336
   272   6 C        3.854    -0.025    20.982     6.515
   273   1 H        0.924     0.046     2.369     2.407
   274   6 C        3.757    -0.115    22.745     6.800
   275   1 H        0.926     0.050     2.315     2.379
   276   1 H        0.924     0.042     2.425     2.435
   277   1 H        0.924     0.034     2.531     2.488
   278   6 C        3.802    -0.060    21.659     6.626
   279   1 H        0.925     0.034     2.535     2.490
   280   1 H        0.924     0.025     2.662     2.551
   281   6 C        3.749    -0.115    22.766     6.805
   282   1 H        0.924     0.038     2.481     2.463
   283   1 H        0.924     0.041     2.440     2.443
   284   1 H        0.926     0.055     2.262     2.352
   285   6 C        2.755     0.275    22.348     7.741
   286   8 O        0.861    -0.510    23.999     6.568
   287   7 N        2.695    -0.152    24.290     7.320
   288   1 H        0.860     0.221     1.007     1.572
   289   6 C        3.811     0.029    20.074     6.378
   290   1 H        0.925     0.080     1.980     2.200
   291   6 C        3.861    -0.016    20.816     6.488
   292   1 H        0.924     0.062     2.171     2.304
   293   6 C        3.766    -0.122    22.872     6.816
   294   1 H        0.925     0.049     2.338     2.391
   295   1 H        0.924     0.054     2.273     2.358
   296   1 H        0.924     0.036     2.499     2.472
   297   6 C        3.806    -0.057    21.589     6.615
   298   1 H        0.924     0.031     2.579     2.512
   299   1 H        0.925     0.037     2.488     2.467
   300   6 C        3.749    -0.115    22.764     6.805
   301   1 H        0.925     0.046     2.366     2.406
   302   1 H        0.924     0.036     2.500     2.473
   303   1 H        0.924     0.059     2.210     2.325
   304   6 C        2.759     0.203    23.688     7.970
   305   8 O        0.858    -0.353    20.767     6.110
   306   1 H        0.860     0.213     1.041     1.598
   307   1 H        0.923     0.061     2.187     2.312
   308   1 H        0.860     0.198     1.117     1.656
   309   1 H        0.923     0.087     1.913     2.163
   310   1 H        0.860     0.197     1.120     1.658
   311   1 H        0.923     0.060     2.198     2.319
   312   1 H        0.860     0.208     1.066     1.617
   313   1 H        0.923     0.061     2.182     2.310
   314   1 H        0.860     0.191     1.154     1.683
   315   1 H        0.923     0.075     2.031     2.229
   316   1 H        0.860     0.196     1.128     1.664
   317   1 H        0.923     0.075     2.035     2.231
   318   1 H        0.860     0.186     1.180     1.701
   319   1 H        0.923     0.069     2.100     2.266
   320   1 H        0.860     0.202     1.094     1.639
   321   1 H        0.923     0.077     2.011     2.218

 Mol. C6AA /au·bohr⁶  :    1045569.563527
 Mol. C8AA /au·bohr⁸  :   24316519.904737
 Mol. α(0) /au        :       1565.338597


Wiberg/Mayer (AO) data.
largest (>0.10) Wiberg bond orders for each atom

 ---------------------------------------------------------------------------
     #   Z sym  total        # sym  WBO       # sym  WBO       # sym  WBO
 ---------------------------------------------------------------------------
     1   6 C    3.871 --    17 O    1.646     2 N    1.183    21 C    0.947
     2   7 N    3.490 --     3 C    1.202     1 C    1.183    33 H    0.867
                            17 O    0.134
     3   6 C    3.500 --     2 N    1.202    14 C    1.096     5 C    1.027
     4   6 C    3.903 --    15 C    1.006    35 H    0.969    34 H    0.962
                            12 O    0.932
     5   6 C    3.973 --     3 C    1.027     6 C    0.975    36 H    0.952
                            37 H    0.946
     6   6 C    3.956 --    11 C    1.412     7 C    1.412     5 C    0.975
                             9 C    0.108
     7   6 C    3.984 --     8 C    1.441     6 C    1.412    38 H    0.966
                            10 C    0.111
     8   6 C    3.986 --     7 C    1.441     9 C    1.431    39 H    0.970
                            11 C    0.114
     9   6 C    3.989 --    10 C    1.446     8 C    1.431    40 H    0.966
                             6 C    0.108
    10   6 C    3.989 --     9 C    1.446    11 C    1.434    41 H    0.966
                             7 C    0.111
    11   6 C    3.984 --    10 C    1.434     6 C    1.412    42 H    0.963
                             8 C    0.114
    12   8 O    2.247 --    14 C    1.106     4 C    0.932    13 O    0.150
    13   8 O    1.861 --    14 C    1.592    12 O    0.150
    14   6 C    3.874 --    13 O    1.592    12 O    1.106     3 C    1.096
    15   6 C    3.984 --     4 C    1.006    43 H    0.987    45 H    0.986
                            44 H    0.981
    16   6 C    3.961 --    18 C    0.998    22 N    0.979    46 H    0.970
                            47 H    0.964
    17   8 O    1.900 --     1 C    1.646     2 N    0.134
    18   6 C    3.965 --    16 C    0.998    19 S    0.993    48 H    0.967
                            49 H    0.966
    19  16 S    2.122 --    18 C    0.993    20 C    0.991
    20   6 C    3.967 --    19 S    0.991    21 C    0.987    50 H    0.963
                            51 H    0.960
    21   6 C    3.965 --    20 C    0.987    22 N    0.983     1 C    0.947
                            52 H    0.923
    22   7 N    3.180 --    21 C    0.983    16 C    0.979    23 S    0.891
    23  16 S    4.795 --    31 O    1.540    30 O    1.534    22 N    0.891
                            24 C    0.730
    24   6 C    3.937 --    29 C    1.414    25 C    1.399    23 S    0.730
    25   6 C    3.982 --    26 C    1.445    24 C    1.399    53 H    0.965
                            28 C    0.110
    26   6 C    3.985 --    25 C    1.445    27 C    1.404    54 H    0.960
                            29 C    0.103
    27   6 C    3.980 --    26 C    1.404    28 C    1.397    32 C    1.029
    28   6 C    3.980 --    29 C    1.440    27 C    1.397    55 H    0.961
                            25 C    0.110
    29   6 C    3.982 --    28 C    1.440    24 C    1.414    56 H    0.965
                            26 C    0.103
    30   8 O    1.835 --    23 S    1.534
    31   8 O    1.825 --    23 S    1.540
    32   6 C    3.986 --    27 C    1.029    59 H    0.981    57 H    0.967
                            58 H    0.955
    33   1 H    0.933 --     2 N    0.867
    34   1 H    0.989 --     4 C    0.962
    35   1 H    0.994 --     4 C    0.969
    36   1 H    0.987 --     5 C    0.952
    37   1 H    0.982 --     5 C    0.946
    38   1 H    0.995 --     7 C    0.966
    39   1 H    0.997 --     8 C    0.970
    40   1 H    0.999 --     9 C    0.966
    41   1 H    0.999 --    10 C    0.966
    42   1 H    0.998 --    11 C    0.963
    43   1 H    0.998 --    15 C    0.987
    44   1 H    0.994 --    15 C    0.981
    45   1 H    0.997 --    15 C    0.986
    46   1 H    0.999 --    16 C    0.970
    47   1 H    0.996 --    16 C    0.964
    48   1 H    0.991 --    18 C    0.967
    49   1 H    0.992 --    18 C    0.966
    50   1 H    0.989 --    20 C    0.963
    51   1 H    0.992 --    20 C    0.960
    52   1 H    0.989 --    21 C    0.923
    53   1 H    0.995 --    25 C    0.965
    54   1 H    0.995 --    26 C    0.960
    55   1 H    0.993 --    28 C    0.961
    56   1 H    0.996 --    29 C    0.965
    57   1 H    0.995 --    32 C    0.967
    58   1 H    0.992 --    32 C    0.955
    59   1 H    0.996 --    32 C    0.981
    60   7 N    2.990 --    62 C    1.035    61 H    0.952   306 H    0.939
    61   1 H    0.966 --    60 N    0.952
    62   6 C    3.977 --    60 N    1.035    79 C    0.992    63 H    0.937
                            64 C    0.924
    63   1 H    0.991 --    62 C    0.937
    64   6 C    3.966 --    67 C    1.008    66 H    0.965    65 H    0.964
                            62 C    0.924
    65   1 H    0.994 --    64 C    0.964
    66   1 H    0.993 --    64 C    0.965
    67   6 C    3.977 --    77 C    1.405    68 C    1.404    64 C    1.008
    68   6 C    3.983 --    70 C    1.450    67 C    1.404    69 H    0.967
                            75 C    0.108
    69   1 H    0.998 --    68 C    0.967
    70   6 C    3.984 --    68 C    1.450    72 C    1.369    71 H    0.971
                            77 C    0.105
    71   1 H    0.999 --    70 C    0.971
    72   6 C    3.925 --    70 C    1.369    75 C    1.366    73 O    1.063
    73   8 O    2.045 --    72 C    1.063    74 H    0.810
    74   1 H    0.884 --    73 O    0.810
    75   6 C    3.977 --    77 C    1.450    72 C    1.366    76 H    0.961
                            68 C    0.108
    76   1 H    0.995 --    75 C    0.961
    77   6 C    3.981 --    75 C    1.450    67 C    1.405    78 H    0.963
                            70 C    0.105
    78   1 H    0.996 --    77 C    0.963
    79   6 C    3.888 --    80 O    1.880    62 C    0.992   307 H    0.936
    80   8 O    2.040 --    79 C    1.880
    81   7 N    3.003 --    83 C    1.032    82 H    0.952   308 H    0.946
    82   1 H    0.970 --    81 N    0.952
    83   6 C    3.973 --    81 N    1.032    84 H    0.955    85 C    0.951
                            99 C    0.933
    84   1 H    0.994 --    83 C    0.955
    85   6 C    3.981 --    88 C    1.009    86 H    0.965    87 H    0.965
                            83 C    0.951
    86   1 H    0.994 --    85 C    0.965
    87   1 H    0.996 --    85 C    0.965
    88   6 C    3.985 --    97 C    1.415    89 C    1.406    85 C    1.009
                            93 C    0.109
    89   6 C    3.988 --    91 C    1.450    88 C    1.406    90 H    0.968
                            95 C    0.109
    90   1 H    0.998 --    89 C    0.968
    91   6 C    3.989 --    89 C    1.450    93 C    1.426    92 H    0.970
                            97 C    0.112
    92   1 H    0.998 --    91 C    0.970
    93   6 C    3.983 --    95 C    1.444    91 C    1.426    94 H    0.969
                            88 C    0.109
    94   1 H    0.998 --    93 C    0.969
    95   6 C    3.990 --    93 C    1.444    97 C    1.434    96 H    0.972
                            89 C    0.109
    96   1 H    0.999 --    95 C    0.972
    97   6 C    3.989 --    95 C    1.434    88 C    1.415    98 H    0.966
                            91 C    0.112
    98   1 H    0.999 --    97 C    0.966
    99   6 C    3.930 --   100 O    1.610   101 N    1.312    83 C    0.933
   100   8 O    1.909 --    99 C    1.610   101 N    0.191
   101   7 N    3.480 --    99 C    1.312   103 C    0.983   102 H    0.915
                           100 O    0.191
   102   1 H    0.955 --   101 N    0.915
   103   6 C    3.970 --   111 C    0.991   101 N    0.983   104 H    0.942
                           105 C    0.942
   104   1 H    0.991 --   103 C    0.942
   105   6 C    3.982 --   106 H    0.973   107 H    0.953   103 C    0.942
                           108 C    0.940
   106   1 H    0.998 --   105 C    0.973
   107   1 H    0.996 --   105 C    0.953
   108   6 C    3.938 --   110 O    1.493   109 O    1.456   105 C    0.940
   109   8 O    1.850 --   108 C    1.456   110 O    0.209
   110   8 O    1.869 --   108 C    1.493   109 O    0.209
   111   6 C    3.890 --   112 O    1.902   103 C    0.991   309 H    0.934
   112   8 O    2.056 --   111 C    1.902
   113   7 N    2.988 --   115 C    1.031   114 H    0.947   310 H    0.945
   114   1 H    0.964 --   113 N    0.947
   115   6 C    3.973 --   113 N    1.031   135 C    0.978   117 C    0.970
                           116 H    0.910
   116   1 H    0.987 --   115 C    0.910
   117   6 C    3.982 --   120 C    1.006   115 C    0.970   119 H    0.970
                           118 H    0.968
   118   1 H    0.994 --   117 C    0.968
   119   1 H    0.996 --   117 C    0.970
   120   6 C    3.989 --   117 C    1.006   123 C    0.998   122 H    0.971
                           121 H    0.969
   121   1 H    0.995 --   120 C    0.969
   122   1 H    0.995 --   120 C    0.971
   123   6 C    3.955 --   120 C    0.998   126 N    0.983   124 H    0.965
                           125 H    0.963
   124   1 H    0.992 --   123 C    0.965
   125   1 H    0.990 --   123 C    0.963
   126   7 N    3.451 --   128 C    1.305   123 C    0.983   127 H    0.910
                           129 N    0.101
   127   1 H    0.943 --   126 N    0.910
   128   6 C    3.974 --   129 N    1.328   132 N    1.309   126 N    1.305
   129   7 N    3.393 --   128 C    1.328   130 H    0.920   131 H    0.859
                           132 N    0.104   126 N    0.101
   130   1 H    0.945 --   129 N    0.920
   131   1 H    0.944 --   129 N    0.859
   132   7 N    3.385 --   128 C    1.309   133 H    0.920   134 H    0.889
                           129 N    0.104
   133   1 H    0.941 --   132 N    0.920
   134   1 H    0.944 --   132 N    0.889
   135   6 C    3.866 --   136 O    1.878   115 C    0.978   311 H    0.935
   136   8 O    2.033 --   135 C    1.878
   137   7 N    2.983 --   139 C    1.023   138 H    0.945   312 H    0.941
   138   1 H    0.964 --   137 N    0.945
   139   6 C    3.968 --   137 N    1.023   141 C    0.969   140 H    0.953
                           155 C    0.926
   140   1 H    0.987 --   139 C    0.953
   141   6 C    3.983 --   144 C    1.010   139 C    0.969   142 H    0.962
                           143 H    0.953
   142   1 H    0.994 --   141 C    0.962
   143   1 H    0.990 --   141 C    0.953
   144   6 C    3.985 --   153 C    1.411   145 C    1.406   141 C    1.010
                           149 C    0.112
   145   6 C    3.988 --   147 C    1.446   144 C    1.406   146 H    0.967
                           151 C    0.111
   146   1 H    0.997 --   145 C    0.967
   147   6 C    3.989 --   145 C    1.446   149 C    1.435   148 H    0.970
                           153 C    0.109
   148   1 H    0.998 --   147 C    0.970
   149   6 C    3.989 --   147 C    1.435   151 C    1.434   150 H    0.967
                           144 C    0.112
   150   1 H    0.999 --   149 C    0.967
   151   6 C    3.990 --   153 C    1.444   149 C    1.434   152 H    0.973
                           145 C    0.111
   152   1 H    1.000 --   151 C    0.973
   153   6 C    3.987 --   151 C    1.444   144 C    1.411   154 H    0.966
                           147 C    0.109
   154   1 H    0.998 --   153 C    0.966
   155   6 C    3.920 --   156 O    1.617   157 N    1.305   139 C    0.926
   156   8 O    1.916 --   155 C    1.617   157 N    0.193
   157   7 N    3.476 --   155 C    1.305   159 C    0.984   158 H    0.917
                           156 O    0.193
   158   1 H    0.955 --   157 N    0.917
   159   6 C    3.964 --   157 N    0.984   161 C    0.962   160 H    0.950
                           177 C    0.942
   160   1 H    0.994 --   159 C    0.950
   161   6 C    3.984 --   164 C    1.005   163 H    0.975   162 H    0.971
                           159 C    0.962
   162   1 H    0.996 --   161 C    0.971
   163   1 H    0.997 --   161 C    0.975
   164   6 C    3.990 --   167 C    1.006   161 C    1.005   166 H    0.973
                           165 H    0.972
   165   1 H    0.996 --   164 C    0.972
   166   1 H    0.997 --   164 C    0.973
   167   6 C    3.986 --   164 C    1.006   170 C    1.006   169 H    0.973
                           168 H    0.967
   168   1 H    0.991 --   167 C    0.967
   169   1 H    0.995 --   167 C    0.973
   170   6 C    3.923 --   167 C    1.006   171 H    0.969   173 N    0.965
                           172 H    0.964
   171   1 H    0.990 --   170 C    0.969
   172   1 H    0.988 --   170 C    0.964
   173   7 N    3.640 --   170 C    0.965   175 H    0.889   174 H    0.886
                           176 H    0.882
   174   1 H    0.905 --   173 N    0.886
   175   1 H    0.908 --   173 N    0.889
   176   1 H    0.901 --   173 N    0.882
   177   6 C    3.944 --   178 O    1.631   179 N    1.300   159 C    0.942
   178   8 O    1.948 --   177 C    1.631   179 N    0.196
   179   7 N    3.472 --   177 C    1.300   181 C    0.991   180 H    0.908
                           178 O    0.196
   180   1 H    0.948 --   179 N    0.908
   181   6 C    3.974 --   197 C    1.004   179 N    0.991   183 C    0.939
                           182 H    0.919
   182   1 H    0.990 --   181 C    0.919
   183   6 C    3.985 --   186 C    1.005   184 H    0.964   185 H    0.962
                           181 C    0.939
   184   1 H    0.996 --   183 C    0.964
   185   1 H    0.997 --   183 C    0.962
   186   6 C    3.986 --   187 C    1.421   195 C    1.409   183 C    1.005
                           191 C    0.106
   187   6 C    3.990 --   189 C    1.430   186 C    1.421   188 H    0.969
                           193 C    0.115
   188   1 H    0.999 --   187 C    0.969
   189   6 C    3.989 --   191 C    1.448   187 C    1.430   190 H    0.970
                           195 C    0.111
   190   1 H    0.998 --   189 C    0.970
   191   6 C    3.990 --   189 C    1.448   193 C    1.431   192 H    0.969
                           186 C    0.106
   192   1 H    0.997 --   191 C    0.969
   193   6 C    3.989 --   195 C    1.445   191 C    1.431   194 H    0.969
                           187 C    0.115
   194   1 H    0.997 --   193 C    0.969
   195   6 C    3.991 --   193 C    1.445   186 C    1.409   196 H    0.969
                           189 C    0.111
   196   1 H    0.999 --   195 C    0.969
   197   6 C    3.897 --   198 O    1.874   181 C    1.004   313 H    0.943
   198   8 O    2.042 --   197 C    1.874
   199   7 N    3.012 --   201 C    1.024   200 H    0.955   314 H    0.948
   200   1 H    0.969 --   199 N    0.955
   201   6 C    3.979 --   199 N    1.024   203 C    0.978   202 H    0.940
                           212 C    0.939
   202   1 H    0.991 --   201 C    0.940
   203   6 C    3.990 --   206 C    1.007   201 C    0.978   205 H    0.974
                           204 H    0.973
   204   1 H    0.997 --   203 C    0.973
   205   1 H    0.998 --   203 C    0.974
   206   6 C    3.989 --   203 C    1.007   207 H    0.964   208 H    0.955
                           209 C    0.945
   207   1 H    0.999 --   206 C    0.964
   208   1 H    0.998 --   206 C    0.955
   209   6 C    3.933 --   210 O    1.485   211 O    1.473   206 C    0.945
   210   8 O    1.760 --   209 C    1.485   211 O    0.205
   211   8 O    1.757 --   209 C    1.473   210 O    0.205
   212   6 C    3.935 --   213 O    1.608   214 N    1.301   201 C    0.939
   213   8 O    1.909 --   212 C    1.608   214 N    0.189
   214   7 N    3.470 --   212 C    1.301   216 C    0.990   215 H    0.903
                           213 O    0.189
   215   1 H    0.953 --   214 N    0.903
   216   6 C    3.968 --   228 C    0.991   214 N    0.990   218 C    0.935
                           217 H    0.933
   217   1 H    0.992 --   216 C    0.933
   218   6 C    3.987 --   224 C    1.009   220 C    1.004   219 H    0.967
                           216 C    0.935
   219   1 H    0.997 --   218 C    0.967
   220   6 C    3.993 --   218 C    1.004   222 H    0.980   223 H    0.979
                           221 H    0.975
   221   1 H    0.996 --   220 C    0.975
   222   1 H    0.999 --   220 C    0.980
   223   1 H    0.998 --   220 C    0.979
   224   6 C    3.991 --   218 C    1.009   226 H    0.982   225 H    0.982
                           227 H    0.981
   225   1 H    0.998 --   224 C    0.982
   226   1 H    0.996 --   224 C    0.982
   227   1 H    0.997 --   224 C    0.981
   228   6 C    3.893 --   229 O    1.891   216 C    0.991   315 H    0.935
   229   8 O    2.055 --   228 C    1.891
   230   7 N    2.990 --   232 C    1.031   231 H    0.951   316 H    0.947
   231   1 H    0.965 --   230 N    0.951
   232   6 C    3.975 --   230 N    1.031   249 C    0.975   234 C    0.945
                           233 H    0.928
   233   1 H    0.987 --   232 C    0.928
   234   6 C    3.980 --   237 C    1.013   236 H    0.969   235 H    0.953
                           232 C    0.945
   235   1 H    0.993 --   234 C    0.953
   236   1 H    0.995 --   234 C    0.969
   237   6 C    3.983 --   238 C    1.405   247 C    1.403   234 C    1.013
   238   6 C    3.984 --   240 C    1.449   237 C    1.405   239 H    0.964
                           245 C    0.106
   239   1 H    0.997 --   238 C    0.964
   240   6 C    3.983 --   238 C    1.449   242 C    1.365   241 H    0.965
                           247 C    0.106
   241   1 H    0.997 --   240 C    0.965
   242   6 C    3.922 --   240 C    1.365   245 C    1.357   243 O    1.071
   243   8 O    2.083 --   242 C    1.071   244 H    0.855
   244   1 H    0.877 --   243 O    0.855
   245   6 C    3.983 --   247 C    1.457   242 C    1.357   246 H    0.969
                           238 C    0.106
   246   1 H    0.998 --   245 C    0.969
   247   6 C    3.986 --   245 C    1.457   237 C    1.403   248 H    0.964
                           240 C    0.106
   248   1 H    0.996 --   247 C    0.964
   249   6 C    3.863 --   250 O    1.879   232 C    0.975   317 H    0.934
   250   8 O    2.030 --   249 C    1.879
   251   7 N    3.001 --   253 C    1.026   318 H    0.950   252 H    0.921
   252   1 H    0.959 --   251 N    0.921
   253   6 C    3.978 --   251 N    1.026   266 C    0.976   254 H    0.960
                           255 C    0.937
   254   1 H    0.995 --   253 C    0.960
   255   6 C    3.973 --   258 C    1.009   257 H    0.966   256 H    0.962
                           253 C    0.937
   256   1 H    0.996 --   255 C    0.962
   257   1 H    0.994 --   255 C    0.966
   258   6 C    3.969 --   264 C    1.564   259 N    1.271   255 C    1.009
   259   7 N    2.993 --   260 C    1.514   258 C    1.271   262 N    0.108
   260   6 C    3.959 --   259 N    1.514   262 N    1.308   261 H    0.963
                           264 C    0.119
   261   1 H    0.998 --   260 C    0.963
   262   7 N    3.593 --   260 C    1.308   264 C    1.186   263 H    0.922
                           259 N    0.108
   263   1 H    0.951 --   262 N    0.922
   264   6 C    3.919 --   258 C    1.564   262 N    1.186   265 H    0.963
                           260 C    0.119
   265   1 H    0.997 --   264 C    0.963
   266   6 C    3.875 --   267 O    1.893   253 C    0.976   319 H    0.939
   267   8 O    2.044 --   266 C    1.893
   268   7 N    2.979 --   270 C    1.025   269 H    0.948   320 H    0.942
   269   1 H    0.970 --   268 N    0.948
   270   6 C    3.971 --   268 N    1.025   271 H    0.952   272 C    0.947
                           285 C    0.942
   271   1 H    0.992 --   270 C    0.952
   272   6 C    3.973 --   274 C    1.008   278 C    0.993   273 H    0.963
                           270 C    0.947
   273   1 H    0.997 --   272 C    0.963
   274   6 C    3.991 --   272 C    1.008   275 H    0.980   276 H    0.980
                           277 H    0.978
   275   1 H    0.997 --   274 C    0.980
   276   1 H    0.998 --   274 C    0.980
   277   1 H    0.999 --   274 C    0.978
   278   6 C    3.994 --   281 C    1.016   272 C    0.993   280 H    0.977
                           279 H    0.976
   279   1 H    0.998 --   278 C    0.976
   280   1 H    0.999 --   278 C    0.977
   281   6 C    3.989 --   278 C    1.016   283 H    0.986   284 H    0.985
                           282 H    0.984
   282   1 H    0.998 --   281 C    0.984
   283   1 H    0.998 --   281 C    0.986
   284   1 H    0.997 --   281 C    0.985
   285   6 C    3.942 --   286 O    1.623   287 N    1.305   270 C    0.942
   286   8 O    1.931 --   285 C    1.623   287 N    0.193
   287   7 N    3.478 --   285 C    1.305   289 C    0.973   288 H    0.907
                           286 O    0.193
   288   1 H    0.951 --   287 N    0.907
   289   6 C    3.965 --   304 C    0.978   287 N    0.973   290 H    0.956
                           291 C    0.946
   290   1 H    0.993 --   289 C    0.956
   291   6 C    3.984 --   293 C    1.002   297 C    1.000   292 H    0.959
                           289 C    0.946
   292   1 H    0.996 --   291 C    0.959
   293   6 C    3.993 --   291 C    1.002   294 H    0.984   295 H    0.981
                           296 H    0.978
   294   1 H    0.998 --   293 C    0.984
   295   1 H    0.996 --   293 C    0.981
   296   1 H    0.999 --   293 C    0.978
   297   6 C    3.993 --   300 C    1.014   291 C    1.000   299 H    0.974
                           298 H    0.970
   298   1 H    0.999 --   297 C    0.970
   299   1 H    0.998 --   297 C    0.974
   300   6 C    3.988 --   297 C    1.014   303 H    0.983   301 H    0.983
Note: The following floating-point exceptions are signalling: IEEE_UNDERFLOW_FLAG IEEE_DENORMAL
normal termination of xtb
                           302 H    0.981
   301   1 H    0.998 --   300 C    0.983
   302   1 H    0.998 --   300 C    0.981
   303   1 H    0.996 --   300 C    0.983
   304   6 C    3.886 --   305 O    1.896   289 C    0.978   321 H    0.937
   305   8 O    2.066 --   304 C    1.896
   306   1 H    0.954 --    60 N    0.939
   307   1 H    0.995 --    79 C    0.936
   308   1 H    0.961 --    81 N    0.946
   309   1 H    0.992 --   111 C    0.934
   310   1 H    0.961 --   113 N    0.945
   311   1 H    0.992 --   135 C    0.935
   312   1 H    0.956 --   137 N    0.941
   313   1 H    0.995 --   197 C    0.943
   314   1 H    0.963 --   199 N    0.948
   315   1 H    0.994 --   228 C    0.935
   316   1 H    0.961 --   230 N    0.947
   317   1 H    0.991 --   249 C    0.934
   318   1 H    0.965 --   251 N    0.950
   319   1 H    0.993 --   266 C    0.939
   320   1 H    0.958 --   268 N    0.942
   321   1 H    0.993 --   304 C    0.937
 ---------------------------------------------------------------------------

Topologies differ in total number of bonds
Writing topology from bond orders to xtbtopo.mol

molecular dipole:
                 x           y           z       tot (Debye)
 q only:       42.320      44.315      75.063
   full:       44.258      44.985      75.178     249.483
molecular quadrupole (traceless):
                xx          xy          yy          xz          yz          zz
 q only:    -1673.685    2161.044   -2274.493    4395.252    4801.968    3948.178
  q+dip:    -1513.336    2390.770   -2294.623    4641.239    4912.412    3807.958
   full:    -1508.056    2392.835   -2294.311    4642.915    4907.859    3802.367


           -------------------------------------------------
          | TOTAL ENERGY             -487.264669353873 Eh   |
          | GRADIENT NORM               0.347190852320 Eh/α |
          | HOMO-LUMO GAP               0.304201044220 eV   |
           -------------------------------------------------

------------------------------------------------------------------------
 * finished run on 2026/01/05 at 09:07:32.825     
------------------------------------------------------------------------
 total:
 * wall-time:     0 d,  0 h,  0 min,  4.067 sec
 *  cpu-time:     0 d,  0 h,  0 min, 58.845 sec
 * ratio c/w:    14.470 speedup
 SCF:
 * wall-time:     0 d,  0 h,  0 min,  3.952 sec
 *  cpu-time:     0 d,  0 h,  0 min, 57.218 sec
 * ratio c/w:    14.479 speedup

