      -----------------------------------------------------------      
     |                   =====================                   |     
     |                           x T B                           |     
     |                   =====================                   |     
     |                         S. Grimme                         |     
     |          Mulliken Center for Theoretical Chemistry        |     
     |                    University of Bonn                     |     
      -----------------------------------------------------------      

   * xtb version 6.7.1 (edcfbbe) compiled by 'conda@c0858423619e' on 2025-09-04

   xtb is free software: you can redistribute it and/or modify it under
   the terms of the GNU Lesser General Public License as published by
   the Free Software Foundation, either version 3 of the License, or
   (at your option) any later version.
   
   xtb is distributed in the hope that it will be useful,
   but WITHOUT ANY WARRANTY; without even the implied warranty of
   MERCHANTABILITY or FITNESS FOR A PARTICULAR PURPOSE.  See the
   GNU Lesser General Public License for more details.
   
   Cite this work as:
   * C. Bannwarth, E. Caldeweyher, S. Ehlert, A. Hansen, P. Pracht,
     J. Seibert, S. Spicher, S. Grimme, WIREs Comput. Mol. Sci., 2020, 11,
     e01493. DOI: 10.1002/wcms.1493
   
   for GFN2-xTB:
   * C. Bannwarth, S. Ehlert and S. Grimme., J. Chem. Theory Comput., 2019,
     15, 1652-1671. DOI: 10.1021/acs.jctc.8b01176
   for GFN1-xTB:
   * S. Grimme, C. Bannwarth, P. Shushkov, J. Chem. Theory Comput., 2017,
     13, 1989-2009. DOI: 10.1021/acs.jctc.7b00118
   for GFN0-xTB:
   * P. Pracht, E. Caldeweyher, S. Ehlert, S. Grimme, ChemRxiv, 2019, preprint.
     DOI: 10.26434/chemrxiv.8326202.v1
   for GFN-FF:
   * S. Spicher and S. Grimme, Angew. Chem. Int. Ed., 2020, 59, 15665-15673.
     DOI: 10.1002/anie.202004239
   
   for ALPB and GBSA implicit solvation:
   * S. Ehlert, M. Stahn, S. Spicher, S. Grimme, J. Chem. Theory Comput.,
     2021, 17, 4250-4261. DOI: 10.1021/acs.jctc.1c00471
   
   for ddCOSMO and CPCM-X implicit solvation:
   * M. Stahn, S. Ehlert, S. Grimme, J. Phys. Chem. A,
     2023, XX, XXXX-XXXX. DOI: 10.1021/acs.jpca.3c04382
   
   for DFT-D4:
   * E. Caldeweyher, C. Bannwarth and S. Grimme, J. Chem. Phys., 2017,
     147, 034112. DOI: 10.1063/1.4993215
   * E. Caldeweyher, S. Ehlert, A. Hansen, H. Neugebauer, S. Spicher,
     C. Bannwarth and S. Grimme, J. Chem. Phys., 2019, 150, 154122.
     DOI: 10.1063/1.5090222
   * E. Caldeweyher, J.-M. Mewes, S. Ehlert and S. Grimme, Phys. Chem. Chem. Phys.
     2020, 22, 8499-8512. DOI: 10.1039/D0CP00502A
   
   for sTDA-xTB:
   * S. Grimme and C. Bannwarth, J. Chem. Phys., 2016, 145, 054103.
     DOI: 10.1063/1.4959605
   
   in the mass-spec context:
   * V. Asgeirsson, C. Bauer and S. Grimme, Chem. Sci., 2017, 8, 4879.
     DOI: 10.1039/c7sc00601b
   * J. Koopman and S. Grimme, ACS Omega 2019, 4, 12, 15120-15133.
     DOI: 10.1021/acsomega.9b02011
   
   for metadynamics refer to:
   * S. Grimme, J. Chem. Theory Comput., 2019, 155, 2847-2862
     DOI: 10.1021/acs.jctc.9b00143
   
   for SPH calculations refer to:
   * S. Spicher and S. Grimme, J. Chem. Theory Comput., 2021, 17, 1701-1714
     DOI: 10.1021/acs.jctc.0c01306
   
   for ONIOM refer to:
   * C. Plett, A. Katbashev, S. Ehlert, S. Grimme, M. Bursch,
     Phys. Chem. Chem. Phys., 2023, 25, 17860-17868. DOI: 10.1039/D3CP02178E
   
   for DIPRO refer to:
   * J. Kohn, N. Gildemeister, S. Grimme, D. Fazzi, A. Hansen,
     J. Chem. Phys., 2023, just accepted.
   
   for PTB refer to:
   * S. Grimme, M. Mueller, A. Hansen, J. Chem. Phys., 2023, 158, 124111.
     DOI: 10.1063/5.0137838
   
   with help from (in alphabetical order)
   P. Atkinson, C. Bannwarth, F. Bohle, G. Brandenburg, E. Caldeweyher
   M. Checinski, S. Dohm, S. Ehlert, S. Ehrlich, I. Gerasimov, C. Hölzer
   A. Katbashev, J. Kohn, J. Koopman, C. Lavigne, S. Lehtola, F. März, M. Müller,
   F. Musil, H. Neugebauer, J. Pisarek, C. Plett, P. Pracht, F. Pultar,
   J. Seibert, P. Shushkov, S. Spicher, M. Stahn, M. Steiner, T. Strunk,
   J. Stückrath, T. Rose, and J. Unsleber
   
 * started run on 2026/01/05 at 09:07:41.211     
   ID    Z sym.   atoms
    1    6 C      1, 3-11, 14-16, 18, 20, 21, 24-29, 32
    2    7 N      2, 22
    3    8 O      12, 13, 17, 30, 31
    4   16 S      19, 23
    5    1 H      33-59

           -------------------------------------------------
          |                Calculation Setup                |
           -------------------------------------------------

          program call               : xtb /home/antonio_mesquita/Documentos/gmx_ISA_project/testes_arquivos_primeiros/gmx_ISA_testes/testes_qm_xtb/QM_analysis/QM_FRAMES_CAPPED/frame_4600ps/ligand_isolated_4600ps.xyz --gfn 2 --alpb water --chrg 1 --etemp 1500 --cycles 1000
          coordinate file            : /home/antonio_mesquita/Documentos/gmx_ISA_project/testes_arquivos_primeiros/gmx_ISA_testes/testes_qm_xtb/QM_analysis/QM_FRAMES_CAPPED/frame_4600ps/ligand_isolated_4600ps.xyz
          omp threads                :                    16


           -------------------------------------------------
          |                 G F N 2 - x T B                 |
           -------------------------------------------------

        Reference                      10.1021/acs.jctc.8b01176
      * Hamiltonian:
        H0-scaling (s, p, d)           1.850000    2.230000    2.230000
        zeta-weighting                 0.500000
      * Dispersion:
        s8                             2.700000
        a1                             0.520000
        a2                             5.000000
        s9                             5.000000
      * Repulsion:
        kExp                           1.500000    1.000000
        rExp                           1.000000
      * Coulomb:
        alpha                          2.000000
        third order                    shell-resolved
        anisotropic                    true
        a3                             3.000000
        a5                             4.000000
        cn-shift                       1.200000
        cn-exp                         4.000000
        max-rad                        5.000000

      * Solvation model:               ALPB
        Solvent                        water
        Parameter file                 internal GFN2-xTB/ALPB
        Dielectric constant                8.0200E+01
        Reference state                gsolv [1 M gas/solution]
        Free energy shift                  1.0808E-03 Eh       6.7819E-01 kcal/mol
        Temperature                        2.9815E+02 K
        Density                            1.0000E+00 kg/L
        Solvent mass                       1.8000E+01 g/mol
        Interaction kernel             P16
        Born radius scaling (c1)           1.4744E+00
        Born radii integrator          GBOBC
        Born offset                        0.0000E+00 a0       0.0000E+00 AA
        H-bond correction              true
        Ion screening                  false
        Surface tension                    1.0000E-05 Eh       1.5569E+01 dyn/cm
        Grid points                               230 per atom

          ...................................................
          :                      SETUP                      :
          :.................................................:
          :  # basis functions                 167          :
          :  # atomic orbitals                 165          :
          :  # shells                           93          :
          :  # electrons                       170          :
          :  max. iterations                   250          :
          :  Hamiltonian                  GFN2-xTB          :
          :  restarted?                      false          :
          :  GBSA solvation                   true          :
          :  PC potential                    false          :
          :  electronic temp.         1500.0000000     K    :
          :  accuracy                    1.0000000          :
          :  -> integral cutoff          0.2500000E+02      :
          :  -> integral neglect         0.1000000E-07      :
          :  -> SCF convergence          0.1000000E-05 Eh   :
          :  -> wf. convergence          0.1000000E-03 e    :
          :  Broyden damping             0.4000000          :
          :  net charge                          1          :
          :  unpaired electrons                  0          :
          ...................................................

 iter      E             dE          RMSdq      gap      omega  full diag
   1    -96.2312218 -0.962312E+02  0.504E+00    0.83       0.0  T
   2    -96.2441538 -0.129321E-01  0.376E+00    0.33       1.0  T
   3    -96.3108187 -0.666648E-01  0.281E+00    1.56       1.0  T
   4    -96.4055974 -0.947788E-01  0.146E+00    0.61       1.0  T
   5    -96.3794724  0.261250E-01  0.126E+00    0.99       1.0  T
   6    -96.4262119 -0.467395E-01  0.322E-01    0.42       1.0  T
   7    -96.4270660 -0.854041E-03  0.115E-01    0.35       1.0  T
   8    -96.4272028 -0.136813E-03  0.587E-02    0.37       1.0  T
   9    -96.4272318 -0.289727E-04  0.246E-02    0.37       1.0  T
  10    -96.4272393 -0.754468E-05  0.120E-02    0.37       1.1  T
  11    -96.4272398 -0.455324E-06  0.923E-03    0.37       1.4  T
  12    -96.4272406 -0.816225E-06  0.768E-03    0.37       1.7  T
  13    -96.4272412 -0.619863E-06  0.474E-03    0.37       2.7  T
  14    -96.4272417 -0.463237E-06  0.106E-03    0.37      12.3  T
  15    -96.4272417 -0.121539E-07  0.357E-04    0.37      36.4  T
  16    -96.4272417 -0.264157E-08  0.144E-04    0.37      90.2  T

   *** convergence criteria satisfied after 16 iterations ***

         #    Occupation            Energy/Eh            Energy/eV
      -------------------------------------------------------------
         1        2.0000           -0.8011649             -21.8008
       ...           ...                  ...                  ...
        79        1.9995           -0.4299184             -11.6987
        80        1.9994           -0.4289933             -11.6735
        81        1.9948           -0.4189604             -11.4005
        82        1.9925           -0.4172275             -11.3533
        83        1.9903           -0.4160185             -11.3204
        84        1.9751           -0.4114937             -11.1973
        85        1.6386           -0.3978964             -10.8273 (HOMO)
        86        0.4101           -0.3842801             -10.4568 (LUMO)
        87                         -0.2784929              -7.5782
        88                         -0.2655363              -7.2256
        89                         -0.2546441              -6.9292
        90                         -0.2466187              -6.7108
       ...                                ...                  ...
       165                          1.0263387              27.9281
      -------------------------------------------------------------
                  HL-Gap            0.0136163 Eh            0.3705 eV
             Fermi-level           -0.3907167 Eh          -10.6319 eV

 SCC (total)                   0 d,  0 h,  0 min,  0.217 sec
 SCC setup                      ...        0 min,  0.001 sec (  0.657%)
 Dispersion                     ...        0 min,  0.002 sec (  0.761%)
 classical contributions        ...        0 min,  0.000 sec (  0.103%)
 integral evaluation            ...        0 min,  0.014 sec (  6.510%)
 iterations                     ...        0 min,  0.162 sec ( 74.780%)
 molecular gradient             ...        0 min,  0.037 sec ( 17.080%)
 printout                       ...        0 min,  0.000 sec (  0.098%)

         :::::::::::::::::::::::::::::::::::::::::::::::::::::
         ::                     SUMMARY                     ::
         :::::::::::::::::::::::::::::::::::::::::::::::::::::
         :: total energy             -95.279233184085 Eh    ::
         :: total w/o Gsasa/hb       -95.275067737238 Eh    ::
         :: gradient norm              0.145085519368 Eh/a0 ::
         :: HOMO-LUMO gap              0.370518391419 eV    ::
         ::.................................................::
         :: SCC energy               -96.426275630701 Eh    ::
         :: -> isotropic ES            0.244771580985 Eh    ::
         :: -> anisotropic ES         -0.026182663689 Eh    ::
         :: -> anisotropic XC          0.040359049109 Eh    ::
         :: -> dispersion             -0.068976099518 Eh    ::
         :: -> Gsolv                  -0.095325435842 Eh    ::
         ::    -> Gelec               -0.091159988996 Eh    ::
         ::    -> Gsasa                0.003158371540 Eh    ::
         ::    -> Ghb                 -0.008404578085 Eh    ::
         ::    -> Gshift               0.001080759698 Eh    ::
         :: repulsion energy           1.147042446616 Eh    ::
         :: add. restraining           0.000000000000 Eh    ::
         :: total charge               1.000000001086 e     ::
         :::::::::::::::::::::::::::::::::::::::::::::::::::::

           -------------------------------------------------
          |                Property Printout                |
           -------------------------------------------------

    * Orbital Energies and Occupations

         #    Occupation            Energy/Eh            Energy/eV
      -------------------------------------------------------------
         1        2.0000           -0.8011649             -21.8008
       ...           ...                  ...                  ...
        73        2.0000           -0.4568881             -12.4326
        74        2.0000           -0.4550734             -12.3832
        75        2.0000           -0.4471897             -12.1687
        76        2.0000           -0.4435433             -12.0694
        77        2.0000           -0.4431608             -12.0590
        78        1.9999           -0.4368188             -11.8864
        79        1.9995           -0.4299184             -11.6987
        80        1.9994           -0.4289933             -11.6735
        81        1.9948           -0.4189604             -11.4005
        82        1.9925           -0.4172275             -11.3533
        83        1.9903           -0.4160185             -11.3204
        84        1.9751           -0.4114937             -11.1973
        85        1.6386           -0.3978964             -10.8273 (HOMO)
        86        0.4101           -0.3842801             -10.4568 (LUMO)
        87                         -0.2784929              -7.5782
        88                         -0.2655363              -7.2256
        89                         -0.2546441              -6.9292
        90                         -0.2466187              -6.7108
        91                         -0.2433288              -6.6213
        92                         -0.2354351              -6.4065
        93                         -0.2292183              -6.2373
        94                         -0.1860933              -5.0639
        95                         -0.1766278              -4.8063
        96                         -0.1633201              -4.4442
       ...                                ...                  ...
       165                          1.0263387              27.9281
      -------------------------------------------------------------
                  HL-Gap            0.0136163 Eh            0.3705 eV
             Fermi-level           -0.3907167 Eh          -10.6319 eV

     #   Z          covCN         q      C6AA      α(0)
     1   6 C        2.744     0.276    22.334     7.738
     2   7 N        2.688    -0.075    22.693     7.075
     3   6 C        2.879     0.096    25.869     8.338
     4   6 C        3.694     0.067    19.633     6.340
     5   6 C        3.803    -0.076    21.950     6.670
     6   6 C        2.961     0.032    27.283     8.568
     7   6 C        2.936    -0.031    28.780     8.798
     8   6 C        2.918    -0.028    28.708     8.786
     9   6 C        2.908    -0.030    28.754     8.793
    10   6 C        2.915    -0.030    28.749     8.792
    11   6 C        2.936    -0.040    28.988     8.830
    12   8 O        1.703    -0.237    17.931     5.717
    13   8 O        0.857    -0.422    22.131     6.307
    14   6 C        2.715     0.352    21.025     7.506
    15   6 C        3.746    -0.126    22.994     6.840
    16   6 C        3.851    -0.007    20.676     6.467
    17   8 O        0.857    -0.406    21.791     6.259
    18   6 C        3.790    -0.055    21.576     6.615
    19  16 S        1.959     0.038   139.522    19.881
    20   6 C        3.790    -0.071    21.864     6.659
    21   6 C        3.841     0.020    20.209     6.395
    22   7 N        2.727    -0.255    26.608     7.661
    23  16 S        3.822     1.150   102.443    17.035
    24   6 C        2.959    -0.085    30.117     9.001
    25   6 C        2.951    -0.033    28.832     8.807
    26   6 C        2.913    -0.037    28.922     8.819
    27   6 C        2.963     0.036    27.185     8.552
    28   6 C        2.917    -0.037    28.918     8.818
    29   6 C        2.939    -0.031    28.767     8.796
    30   8 O        0.859    -0.661    27.653     7.050
    31   8 O        0.860    -0.640    27.132     6.984
    32   6 C        3.753    -0.145    23.362     6.892
    33   1 H        0.861     0.276     0.788     1.390
    34   1 H        0.924     0.071     2.078     2.254
    35   1 H        0.923     0.086     1.919     2.166
    36   1 H        0.923     0.132     1.522     1.929
    37   1 H        0.924     0.127     1.559     1.953
    38   1 H        0.924     0.055     2.255     2.348
    39   1 H        0.926     0.063     2.163     2.300
    40   1 H        0.925     0.060     2.198     2.318
    41   1 H        0.924     0.063     2.165     2.301
    42   1 H        0.925     0.054     2.266     2.354
    43   1 H        0.924     0.063     2.163     2.300
    44   1 H        0.924     0.067     2.113     2.273
    45   1 H        0.923     0.056     2.245     2.343
    46   1 H        0.923     0.065     2.137     2.286
    47   1 H        0.923     0.084     1.940     2.178
    48   1 H        0.924     0.119     1.621     1.991
    49   1 H        0.925     0.120     1.612     1.986
    50   1 H        0.924     0.132     1.523     1.930
    51   1 H        0.924     0.127     1.557     1.952
    52   1 H        0.924     0.122     1.598     1.977
    53   1 H        0.924     0.079     1.993     2.208
    54   1 H        0.924     0.090     1.878     2.143
    55   1 H        0.925     0.079     1.990     2.206
    56   1 H        0.925     0.060     2.202     2.320
    57   1 H        0.923     0.072     2.063     2.246
    58   1 H        0.924     0.093     1.849     2.126
    59   1 H        0.925     0.076     2.022     2.224

 Mol. C6AA /au·bohr⁶  :      43352.035384
 Mol. C8AA /au·bohr⁸  :    1117039.728292
 Mol. α(0) /au        :        323.795976


Wiberg/Mayer (AO) data.
largest (>0.10) Wiberg bond orders for each atom

 ---------------------------------------------------------------------------
     #   Z sym  total        # sym  WBO       # sym  WBO       # sym  WBO
 ---------------------------------------------------------------------------
     1   6 C    3.888 --    17 O    1.736     2 N    1.148    21 C    0.923
     2   7 N    3.536 --     3 C    1.285     1 C    1.148    33 H    0.856
                            17 O    0.109
     3   6 C    3.651 --     2 N    1.285     5 C    1.070    14 C    1.033
     4   6 C    3.901 --    15 C    0.999    34 H    0.965    35 H    0.964
                            12 O    0.938
     5   6 C    3.954 --     3 C    1.070    36 H    0.937    37 H    0.931
                             6 C    0.922
     6   6 C    3.933 --     7 C    1.402    11 C    1.381     5 C    0.922
     7   6 C    3.966 --     8 C    1.428     6 C    1.402    38 H    0.963
                            10 C    0.104
     8   6 C    3.970 --     9 C    1.432     7 C    1.428    39 H    0.965
                            11 C    0.105
     9   6 C    3.961 --     8 C    1.432    10 C    1.419    40 H    0.966
    10   6 C    3.971 --    11 C    1.449     9 C    1.419    41 H    0.964
                             7 C    0.104
    11   6 C    3.970 --    10 C    1.449     6 C    1.381    42 H    0.966
                             8 C    0.105
    12   8 O    2.314 --    14 C    1.137     4 C    0.938    13 O    0.182
    13   8 O    1.960 --    14 C    1.666    12 O    0.182
    14   6 C    3.907 --    13 O    1.666    12 O    1.137     3 C    1.033
    15   6 C    3.979 --     4 C    0.999    43 H    0.985    45 H    0.983
                            44 H    0.983
    16   6 C    3.947 --    18 C    0.999    22 N    0.985    46 H    0.959
                            47 H    0.952
    17   8 O    1.992 --     1 C    1.736     2 N    0.109
    18   6 C    3.946 --    16 C    0.999    19 S    0.993    49 H    0.958
                            48 H    0.953
    19  16 S    2.146 --    20 C    0.996    18 C    0.993
    20   6 C    3.943 --    19 S    0.996    21 C    0.987    51 H    0.954
                            50 H    0.942
    21   6 C    3.948 --    22 N    0.987    20 C    0.987     1 C    0.923
                            52 H    0.919
    22   7 N    3.178 --    21 C    0.987    16 C    0.985    23 S    0.881
    23  16 S    4.804 --    31 O    1.566    30 O    1.535    22 N    0.881
                            24 C    0.723
    24   6 C    3.934 --    29 C    1.413    25 C    1.401    23 S    0.723
    25   6 C    3.980 --    26 C    1.449    24 C    1.401    53 H    0.961
                            28 C    0.105
    26   6 C    3.981 --    25 C    1.449    27 C    1.395    54 H    0.961
                            29 C    0.106
    27   6 C    3.978 --    28 C    1.407    26 C    1.395    32 C    1.029
    28   6 C    3.981 --    29 C    1.434    27 C    1.407    55 H    0.962
                            25 C    0.105
    29   6 C    3.983 --    28 C    1.434    24 C    1.413    56 H    0.965
                            26 C    0.106
    30   8 O    1.829 --    23 S    1.535    31 O    0.103
    31   8 O    1.857 --    23 S    1.566    30 O    0.103
    32   6 C    3.982 --    27 C    1.029    59 H    0.981    57 H    0.964
                            58 H    0.959
    33   1 H    0.923 --     2 N    0.856
    34   1 H    0.993 --     4 C    0.965
    35   1 H    0.992 --     4 C    0.964
    36   1 H    0.980 --     5 C    0.937
    37   1 H    0.973 --     5 C    0.931
    38   1 H    0.995 --     7 C    0.963
    39   1 H    0.992 --     8 C    0.965
    40   1 H    0.993 --     9 C    0.966
    41   1 H    0.994 --    10 C    0.964
    42   1 H    0.996 --    11 C    0.966
    43   1 H    0.996 --    15 C    0.985
    44   1 H    0.994 --    15 C    0.983
    45   1 H    0.997 --    15 C    0.983
    46   1 H    0.985 --    16 C    0.959
    47   1 H    0.993 --    16 C    0.952
    48   1 H    0.968 --    18 C    0.953
    49   1 H    0.983 --    18 C    0.958
    50   1 H    0.963 --    20 C    0.942
    51   1 H    0.983 --    20 C    0.954
    52   1 H    0.983 --    21 C    0.919
    53   1 H    0.993 --    25 C    0.961
    54   1 H    0.991 --    26 C    0.961
    55   1 H    0.993 --    28 C    0.962
    56   1 H    0.996 --    29 C    0.965
    57   1 H    0.993 --    32 C    0.964
    58   1 H    0.990 --    32 C    0.959
    59   1 H    0.994 --    32 C    0.981
 ---------------------------------------------------------------------------

Topologies differ in total number of bonds
Writing topology from bond orders to xtbtopo.mol

molecular dipole:
                 x           y           z       tot (Debye)
 q only:       31.086      19.069       5.279
   full:       30.545      18.898       4.945      92.155
molecular quadrupole (traceless):
                xx          xy          yy          xz          yz          zz
 q only:      769.224     893.453    -168.985     165.148     119.118    -600.239
  q+dip:      741.383     869.525    -154.282     151.477     107.352    -587.100
   full:      740.291     869.867    -153.359     151.530     108.359    -586.932


           -------------------------------------------------
          | TOTAL ENERGY              -95.279233184085 Eh   |
          | GRADIENT NORM               0.145085519368 Eh/α |
          | HOMO-LUMO GAP               0.370518391419 eV   |
           -------------------------------------------------

------------------------------------------------------------------------
Note: The following floating-point exceptions are signalling: IEEE_UNDERFLOW_FLAG IEEE_DENORMAL
normal termination of xtb
 * finished run on 2026/01/05 at 09:07:41.454     
------------------------------------------------------------------------
 total:
 * wall-time:     0 d,  0 h,  0 min,  0.243 sec
 *  cpu-time:     0 d,  0 h,  0 min,  3.660 sec
 * ratio c/w:    15.067 speedup
 SCF:
 * wall-time:     0 d,  0 h,  0 min,  0.217 sec
 *  cpu-time:     0 d,  0 h,  0 min,  3.275 sec
 * ratio c/w:    15.080 speedup

