      -----------------------------------------------------------      
     |                   =====================                   |     
     |                           x T B                           |     
     |                   =====================                   |     
     |                         S. Grimme                         |     
     |          Mulliken Center for Theoretical Chemistry        |     
     |                    University of Bonn                     |     
      -----------------------------------------------------------      

   * xtb version 6.7.1 (edcfbbe) compiled by 'conda@c0858423619e' on 2025-09-04

   xtb is free software: you can redistribute it and/or modify it under
   the terms of the GNU Lesser General Public License as published by
   the Free Software Foundation, either version 3 of the License, or
   (at your option) any later version.
   
   xtb is distributed in the hope that it will be useful,
   but WITHOUT ANY WARRANTY; without even the implied warranty of
   MERCHANTABILITY or FITNESS FOR A PARTICULAR PURPOSE.  See the
   GNU Lesser General Public License for more details.
   
   Cite this work as:
   * C. Bannwarth, E. Caldeweyher, S. Ehlert, A. Hansen, P. Pracht,
     J. Seibert, S. Spicher, S. Grimme, WIREs Comput. Mol. Sci., 2020, 11,
     e01493. DOI: 10.1002/wcms.1493
   
   for GFN2-xTB:
   * C. Bannwarth, S. Ehlert and S. Grimme., J. Chem. Theory Comput., 2019,
     15, 1652-1671. DOI: 10.1021/acs.jctc.8b01176
   for GFN1-xTB:
   * S. Grimme, C. Bannwarth, P. Shushkov, J. Chem. Theory Comput., 2017,
     13, 1989-2009. DOI: 10.1021/acs.jctc.7b00118
   for GFN0-xTB:
   * P. Pracht, E. Caldeweyher, S. Ehlert, S. Grimme, ChemRxiv, 2019, preprint.
     DOI: 10.26434/chemrxiv.8326202.v1
   for GFN-FF:
   * S. Spicher and S. Grimme, Angew. Chem. Int. Ed., 2020, 59, 15665-15673.
     DOI: 10.1002/anie.202004239
   
   for ALPB and GBSA implicit solvation:
   * S. Ehlert, M. Stahn, S. Spicher, S. Grimme, J. Chem. Theory Comput.,
     2021, 17, 4250-4261. DOI: 10.1021/acs.jctc.1c00471
   
   for ddCOSMO and CPCM-X implicit solvation:
   * M. Stahn, S. Ehlert, S. Grimme, J. Phys. Chem. A,
     2023, XX, XXXX-XXXX. DOI: 10.1021/acs.jpca.3c04382
   
   for DFT-D4:
   * E. Caldeweyher, C. Bannwarth and S. Grimme, J. Chem. Phys., 2017,
     147, 034112. DOI: 10.1063/1.4993215
   * E. Caldeweyher, S. Ehlert, A. Hansen, H. Neugebauer, S. Spicher,
     C. Bannwarth and S. Grimme, J. Chem. Phys., 2019, 150, 154122.
     DOI: 10.1063/1.5090222
   * E. Caldeweyher, J.-M. Mewes, S. Ehlert and S. Grimme, Phys. Chem. Chem. Phys.
     2020, 22, 8499-8512. DOI: 10.1039/D0CP00502A
   
   for sTDA-xTB:
   * S. Grimme and C. Bannwarth, J. Chem. Phys., 2016, 145, 054103.
     DOI: 10.1063/1.4959605
   
   in the mass-spec context:
   * V. Asgeirsson, C. Bauer and S. Grimme, Chem. Sci., 2017, 8, 4879.
     DOI: 10.1039/c7sc00601b
   * J. Koopman and S. Grimme, ACS Omega 2019, 4, 12, 15120-15133.
     DOI: 10.1021/acsomega.9b02011
   
   for metadynamics refer to:
   * S. Grimme, J. Chem. Theory Comput., 2019, 155, 2847-2862
     DOI: 10.1021/acs.jctc.9b00143
   
   for SPH calculations refer to:
   * S. Spicher and S. Grimme, J. Chem. Theory Comput., 2021, 17, 1701-1714
     DOI: 10.1021/acs.jctc.0c01306
   
   for ONIOM refer to:
   * C. Plett, A. Katbashev, S. Ehlert, S. Grimme, M. Bursch,
     Phys. Chem. Chem. Phys., 2023, 25, 17860-17868. DOI: 10.1039/D3CP02178E
   
   for DIPRO refer to:
   * J. Kohn, N. Gildemeister, S. Grimme, D. Fazzi, A. Hansen,
     J. Chem. Phys., 2023, just accepted.
   
   for PTB refer to:
   * S. Grimme, M. Mueller, A. Hansen, J. Chem. Phys., 2023, 158, 124111.
     DOI: 10.1063/5.0137838
   
   with help from (in alphabetical order)
   P. Atkinson, C. Bannwarth, F. Bohle, G. Brandenburg, E. Caldeweyher
   M. Checinski, S. Dohm, S. Ehlert, S. Ehrlich, I. Gerasimov, C. Hölzer
   A. Katbashev, J. Kohn, J. Koopman, C. Lavigne, S. Lehtola, F. März, M. Müller,
   F. Musil, H. Neugebauer, J. Pisarek, C. Plett, P. Pracht, F. Pultar,
   J. Seibert, P. Shushkov, S. Spicher, M. Stahn, M. Steiner, T. Strunk,
   J. Stückrath, T. Rose, and J. Unsleber
   
 * started run on 2026/01/05 at 09:06:23.643     
   ID    Z sym.   atoms
    1    7 N      1, 21, 33, 45, 50, 65, 81, 100, 121, 129, 132, 138, 157
    2    1 H      2, 4, 6, 7, 10, 12, 14, 16, 18, 22, 24, 26, 27, 34, 36, 38,
                  39, 41, 42, 46, 47, 51, 53, 55, 56, 58, 59, 66, 68, 70,
                  72-74, 76-78, 82, 84, 86, 88-90, 92, 93, 95-97, 101, 103,
                  105, 106, 109, 111, 114, 116, 118, 122, 124, 126, 127, 131,
                  133, 135, 139, 141, 143, 145-147, 149, 150, 152-154, 158,
                  160, 162, 164-166, 168, 169, 171-173, 176-185
    3    6 C      3, 5, 8, 9, 11, 13, 15, 17, 19, 23, 25, 28, 31, 35, 37, 40,
                  43, 48, 52, 54, 57, 60, 63, 67, 69, 71, 75, 79, 83, 85, 87,
                  91, 94, 98, 102, 104, 107, 108, 110, 112, 115, 117, 119,
                  123, 125, 128, 130, 134, 136, 140, 142, 144, 148, 151, 155,
                  159, 161, 163, 167, 170, 174
    4    8 O      20, 29, 30, 32, 44, 49, 61, 62, 64, 80, 99, 113, 120, 137,
                  156, 175

           -------------------------------------------------
          |                Calculation Setup                |
           -------------------------------------------------

          program call               : xtb /home/antonio_mesquita/Documentos/gmx_ISA_project/testes_arquivos_primeiros/gmx_ISA_testes/testes_qm_xtb/QM_analysis/QM_FRAMES_CAPPED/frame_1200ps/residues_pocket_capped_1200ps.xyz --gfn 2 --alpb water --chrg -2 --etemp 1500 --cycles 1000
          coordinate file            : /home/antonio_mesquita/Documentos/gmx_ISA_project/testes_arquivos_primeiros/gmx_ISA_testes/testes_qm_xtb/QM_analysis/QM_FRAMES_CAPPED/frame_1200ps/residues_pocket_capped_1200ps.xyz
          omp threads                :                    16


molecular fragmentation (1/2 indicates fragments):
111111111111111111111111111111112222222222222222222222222222222222222222
222222222222222222222222222222222222222222222222222222222222222222222222
22222222222222222222222222222221122222222
# atoms in fragment 1/2:    34   151
 fragment masses (1/2) :      263.27     1003.22
CMA distance (Bohr)    :  17.348
constraining FC (au)   :  0.0500

           -------------------------------------------------
          |                 G F N 2 - x T B                 |
           -------------------------------------------------

        Reference                      10.1021/acs.jctc.8b01176
      * Hamiltonian:
        H0-scaling (s, p, d)           1.850000    2.230000    2.230000
        zeta-weighting                 0.500000
      * Dispersion:
        s8                             2.700000
        a1                             0.520000
        a2                             5.000000
        s9                             5.000000
      * Repulsion:
        kExp                           1.500000    1.000000
        rExp                           1.000000
      * Coulomb:
        alpha                          2.000000
        third order                    shell-resolved
        anisotropic                    true
        a3                             3.000000
        a5                             4.000000
        cn-shift                       1.200000
        cn-exp                         4.000000
        max-rad                        5.000000

      * Solvation model:               ALPB
        Solvent                        water
        Parameter file                 internal GFN2-xTB/ALPB
        Dielectric constant                8.0200E+01
        Reference state                gsolv [1 M gas/solution]
        Free energy shift                  1.0808E-03 Eh       6.7819E-01 kcal/mol
        Temperature                        2.9815E+02 K
        Density                            1.0000E+00 kg/L
        Solvent mass                       1.8000E+01 g/mol
        Interaction kernel             P16
        Born radius scaling (c1)           1.4744E+00
        Born radii integrator          GBOBC
        Born offset                        0.0000E+00 a0       0.0000E+00 AA
        H-bond correction              true
        Ion screening                  false
        Surface tension                    1.0000E-05 Eh       1.5569E+01 dyn/cm
        Grid points                               230 per atom

          ...................................................
          :                      SETUP                      :
          :.................................................:
          :  # basis functions                 455          :
          :  # atomic orbitals                 455          :
          :  # shells                          275          :
          :  # electrons                       502          :
          :  max. iterations                   250          :
          :  Hamiltonian                  GFN2-xTB          :
          :  restarted?                      false          :
          :  GBSA solvation                   true          :
          :  PC potential                    false          :
          :  electronic temp.         1500.0000000     K    :
          :  accuracy                    1.0000000          :
          :  -> integral cutoff          0.2500000E+02      :
          :  -> integral neglect         0.1000000E-07      :
          :  -> SCF convergence          0.1000000E-05 Eh   :
          :  -> wf. convergence          0.1000000E-03 e    :
          :  Broyden damping             0.4000000          :
          :  net charge                         -2          :
          :  unpaired electrons                  0          :
          ...................................................

 iter      E             dE          RMSdq      gap      omega  full diag
   1   -285.3681211 -0.285368E+03  0.444E+00    1.79       0.0  T
   2   -286.0405436 -0.672423E+00  0.224E+00    0.97       1.0  T
   3   -286.0617835 -0.212399E-01  0.123E+00    1.64       1.0  T
   4   -286.0872243 -0.254408E-01  0.304E-01    1.07       1.0  T
   5   -286.0959165 -0.869220E-02  0.117E-01    1.27       1.0  T
   6   -286.0962410 -0.324450E-03  0.639E-02    1.20       1.0  T
   7   -286.0963790 -0.138007E-03  0.249E-02    1.18       1.0  T
   8   -286.0964082 -0.291608E-04  0.983E-03    1.19       1.0  T
   9   -286.0964116 -0.342902E-05  0.501E-03    1.19       1.5  T
  10   -286.0964124 -0.793756E-06  0.219E-03    1.19       3.4  T
  11   -286.0964125 -0.170636E-06  0.982E-04    1.19       7.5  T
  12   -286.0964126 -0.397201E-07  0.460E-04    1.19      16.0  T

   *** convergence criteria satisfied after 12 iterations ***

         #    Occupation            Energy/Eh            Energy/eV
      -------------------------------------------------------------
         1        2.0000           -0.7351883             -20.0055
       ...           ...                  ...                  ...
       245        2.0000           -0.3646322              -9.9221
       246        1.9999           -0.3614968              -9.8368
       247        1.9999           -0.3581630              -9.7461
       248        1.9978           -0.3453166              -9.3965
       249        1.9943           -0.3408479              -9.2749
       250        1.9867           -0.3367744              -9.1641
       251        1.9793           -0.3346567              -9.1065 (HOMO)
       252        0.0197           -0.2910875              -7.9209 (LUMO)
       253        0.0111           -0.2883661              -7.8468
       254        0.0063           -0.2856378              -7.7726
       255        0.0041           -0.2836093              -7.7174
       256        0.0009           -0.2764545              -7.5227
       ...           ...                  ...                  ...
       455                          0.6312590              17.1774
      -------------------------------------------------------------
                  HL-Gap            0.0435692 Eh            1.1856 eV
             Fermi-level           -0.3129909 Eh           -8.5169 eV

 SCC (total)                   0 d,  0 h,  0 min,  0.873 sec
 SCC setup                      ...        0 min,  0.009 sec (  1.036%)
 Dispersion                     ...        0 min,  0.022 sec (  2.490%)
 classical contributions        ...        0 min,  0.003 sec (  0.365%)
 integral evaluation            ...        0 min,  0.039 sec (  4.436%)
 iterations                     ...        0 min,  0.648 sec ( 74.211%)
 molecular gradient             ...        0 min,  0.147 sec ( 16.867%)
 printout                       ...        0 min,  0.005 sec (  0.590%)

         :::::::::::::::::::::::::::::::::::::::::::::::::::::
         ::                     SUMMARY                     ::
         :::::::::::::::::::::::::::::::::::::::::::::::::::::
         :: total energy            -282.658303367985 Eh    ::
         :: total w/o Gsasa/hb      -282.635496697761 Eh    ::
         :: gradient norm              0.252214421129 Eh/a0 ::
         :: HOMO-LUMO gap              1.185578052802 eV    ::
         ::.................................................::
         :: SCC energy              -286.087802769687 Eh    ::
         :: -> isotropic ES            1.081784123979 Eh    ::
         :: -> anisotropic ES          0.027719063572 Eh    ::
         :: -> anisotropic XC          0.108136323119 Eh    ::
         :: -> dispersion             -0.196567865482 Eh    ::
         :: -> Gsolv                  -0.372764023229 Eh    ::
         ::    -> Gelec               -0.349957353006 Eh    ::
         ::    -> Gsasa                0.012330168972 Eh    ::
         ::    -> Ghb                 -0.036217598894 Eh    ::
         ::    -> Gshift               0.001080759698 Eh    ::
         :: repulsion energy           3.429499401702 Eh    ::
         :: add. restraining           0.000000000000 Eh    ::
         :: total charge              -2.000000000000 e     ::
         :::::::::::::::::::::::::::::::::::::::::::::::::::::

           -------------------------------------------------
          |                Property Printout                |
           -------------------------------------------------

    * Orbital Energies and Occupations

         #    Occupation            Energy/Eh            Energy/eV
      -------------------------------------------------------------
         1        2.0000           -0.7351883             -20.0055
       ...           ...                  ...                  ...
       239        2.0000           -0.3871804             -10.5357
       240        2.0000           -0.3841080             -10.4521
       241        2.0000           -0.3766216             -10.2484
       242        2.0000           -0.3748713             -10.2008
       243        2.0000           -0.3710251             -10.0961
       244        2.0000           -0.3685486             -10.0287
       245        2.0000           -0.3646322              -9.9221
       246        1.9999           -0.3614968              -9.8368
       247        1.9999           -0.3581630              -9.7461
       248        1.9978           -0.3453166              -9.3965
       249        1.9943           -0.3408479              -9.2749
       250        1.9867           -0.3367744              -9.1641
       251        1.9793           -0.3346567              -9.1065 (HOMO)
       252        0.0197           -0.2910875              -7.9209 (LUMO)
       253        0.0111           -0.2883661              -7.8468
       254        0.0063           -0.2856378              -7.7726
       255        0.0041           -0.2836093              -7.7174
       256        0.0009           -0.2764545              -7.5227
       257                         -0.2256417              -6.1400
       258                         -0.2255520              -6.1376
       259                         -0.2228863              -6.0650
       260                         -0.2222169              -6.0468
       261                         -0.2170704              -5.9068
       262                         -0.2140434              -5.8244
       ...                                ...                  ...
       455                          0.6312590              17.1774
      -------------------------------------------------------------
                  HL-Gap            0.0435692 Eh            1.1856 eV
             Fermi-level           -0.3129909 Eh           -8.5169 eV

     #   Z          covCN         q      C6AA      α(0)
     1   7 N        2.630    -0.373    29.644     8.086
     2   1 H        0.860     0.157     1.354     1.823
     3   6 C        3.787     0.033    20.026     6.374
     4   1 H        0.923     0.060     2.194     2.317
     5   6 C        3.810    -0.072    21.869     6.657
     6   1 H        0.925     0.081     1.964     2.192
     7   1 H        0.924     0.049     2.330     2.387
     8   6 C        2.961     0.008    27.838     8.654
     9   6 C        2.917    -0.042    29.053     8.839
    10   1 H        0.925     0.053     2.289     2.366
    11   6 C        2.916    -0.038    28.936     8.821
    12   1 H        0.926     0.049     2.326     2.385
    13   6 C        2.905    -0.043    29.055     8.838
    14   1 H        0.926     0.043     2.405     2.425
    15   6 C        2.919    -0.035    28.869     8.811
    16   1 H        0.926     0.016     2.791     2.613
    17   6 C        2.911    -0.039    28.975     8.827
    18   1 H        0.926     0.007     2.939     2.681
    19   6 C        2.749     0.265    22.523     7.771
    20   8 O        0.860    -0.540    24.681     6.661
    21   7 N        2.687    -0.162    24.496     7.351
    22   1 H        0.860     0.216     1.027     1.588
    23   6 C        3.790     0.042    19.872     6.349
    24   1 H        0.924     0.086     1.920     2.167
    25   6 C        3.810    -0.079    22.008     6.678
    26   1 H        0.925     0.044     2.396     2.421
    27   1 H        0.924     0.056     2.251     2.346
    28   6 C        2.687     0.363    20.837     7.470
    29   8 O        0.857    -0.662    27.683     7.054
    30   8 O        0.857    -0.647    27.293     7.004
    31   6 C        2.766     0.211    23.526     7.943
    32   8 O        0.856    -0.370    21.097     6.158
    33   7 N        2.633    -0.387    30.002     8.135
    34   1 H        0.860     0.174     1.246     1.749
    35   6 C        3.788     0.032    20.049     6.377
    36   1 H        0.924     0.066     2.130     2.282
    37   6 C        3.804    -0.060    21.653     6.625
    38   1 H        0.923     0.045     2.384     2.415
    39   1 H        0.925     0.055     2.262     2.352
    40   6 C        3.805    -0.100    22.398     6.737
    41   1 H        0.924     0.088     1.894     2.152
    42   1 H        0.925     0.076     2.023     2.224
    43   6 C        2.742     0.285    22.175     7.710
    44   8 O        0.863    -0.543    24.761     6.672
    45   7 N        2.640    -0.304    27.835     7.836
    46   1 H        0.860     0.248     0.890     1.478
    47   1 H        0.860     0.246     0.901     1.487
    48   6 C        2.746     0.265    22.524     7.771
    49   8 O        0.860    -0.530    24.458     6.631
    50   7 N        2.693    -0.176    24.808     7.397
    51   1 H        0.860     0.215     1.035     1.594
    52   6 C        3.790     0.024    20.190     6.399
    53   1 H        0.925     0.085     1.932     2.174
    54   6 C        3.816    -0.050    21.464     6.594
    55   1 H        0.924     0.059     2.205     2.322
    56   1 H        0.925     0.045     2.381     2.413
    57   6 C        3.801    -0.087    22.165     6.703
    58   1 H        0.924     0.024     2.673     2.557
    59   1 H        0.925     0.044     2.402     2.424
    60   6 C        2.694     0.364    20.820     7.468
    61   8 O        0.857    -0.655    27.504     7.031
    62   8 O        0.857    -0.673    27.994     7.094
    63   6 C        2.746     0.276    22.328     7.737
    64   8 O        0.860    -0.522    24.271     6.605
    65   7 N        2.699    -0.170    24.677     7.378
    66   1 H        0.860     0.201     1.103     1.645
    67   6 C        3.798     0.021    20.220     6.403
    68   1 H        0.925     0.070     2.083     2.257
    69   6 C        3.852    -0.016    20.820     6.490
    70   1 H        0.925     0.061     2.192     2.315
    71   6 C        3.753    -0.113    22.722     6.798
    72   1 H        0.925     0.044     2.398     2.421
    73   1 H        0.924     0.027     2.629     2.536
    74   1 H        0.925     0.061     2.189     2.314
    75   6 C        3.754    -0.119    22.834     6.814
    76   1 H        0.925     0.063     2.160     2.298
    77   1 H        0.924     0.044     2.396     2.421
    78   1 H        0.925     0.049     2.336     2.390
    79   6 C        2.766     0.270    22.445     7.759
    80   8 O        0.861    -0.505    23.898     6.554
    81   7 N        2.696    -0.157    24.406     7.337
    82   1 H        0.860     0.214     1.039     1.597
    83   6 C        3.797     0.030    20.070     6.379
    84   1 H        0.925     0.091     1.869     2.138
    85   6 C        3.854    -0.014    20.793     6.485
    86   1 H        0.925     0.068     2.103     2.268
    87   6 C        3.759    -0.119    22.828     6.811
    88   1 H        0.925     0.043     2.409     2.427
    89   1 H        0.925     0.064     2.155     2.296
    90   1 H        0.925     0.043     2.415     2.430
    91   6 C        3.810    -0.063    21.709     6.632
    92   1 H        0.924     0.039     2.468     2.457
    93   1 H        0.925     0.043     2.415     2.430
    94   6 C        3.748    -0.111    22.684     6.793
    95   1 H        0.924     0.039     2.468     2.457
    96   1 H        0.925     0.048     2.340     2.392
    97   1 H        0.924     0.044     2.401     2.423
    98   6 C        2.758     0.209    23.560     7.949
    99   8 O        0.856    -0.380    21.290     6.186
   100   7 N        2.632    -0.373    29.628     8.084
   101   1 H        0.860     0.173     1.256     1.755
   102   6 C        3.786     0.034    20.014     6.372
   103   1 H        0.925     0.082     1.959     2.189
   104   6 C        3.816    -0.071    21.841     6.651
   105   1 H        0.925     0.062     2.180     2.309
   106   1 H        0.925     0.053     2.281     2.362
   107   6 C        2.960    -0.000    28.027     8.683
   108   6 C        2.920    -0.048    29.187     8.859
   109   1 H        0.926     0.041     2.430     2.438
   110   6 C        2.902    -0.078    29.946     8.973
   111   1 H        0.926     0.045     2.387     2.416
   112   6 C        2.842     0.141    24.932     8.183
   113   8 O        1.660    -0.457    21.989     6.330
   114   1 H        0.805     0.356     0.575     1.191
   115   6 C        2.906    -0.060    29.503     8.906
   116   1 H        0.926     0.044     2.394     2.420
   117   6 C        2.911    -0.042    29.040     8.836
   118   1 H        0.926     0.053     2.278     2.360
   119   6 C        2.759     0.199    23.756     7.982
   120   8 O        0.857    -0.392    21.516     6.219
   121   7 N        2.636    -0.364    29.392     8.052
   122   1 H        0.860     0.174     1.251     1.752
   123   6 C        3.784     0.052    19.724     6.326
   124   1 H        0.924     0.049     2.332     2.388
   125   6 C        3.812    -0.070    21.831     6.650
   126   1 H        0.924     0.054     2.265     2.354
   127   1 H        0.925     0.076     2.021     2.223
   128   6 C        3.170     0.047    26.580     8.423
   129   7 N        1.903    -0.319    29.130     8.002
   130   6 C        3.018     0.082    26.156     8.389
   131   1 H        0.926     0.052     2.293     2.368
   132   7 N        2.854    -0.112    23.431     7.189
   133   1 H        0.860     0.218     1.020     1.582
   134   6 C        2.940    -0.033    28.833     8.807
   135   1 H        0.926     0.049     2.336     2.390
   136   6 C        2.763     0.204    23.657     7.965
   137   8 O        0.857    -0.373    21.147     6.165
   138   7 N        2.630    -0.381    29.844     8.113
   139   1 H        0.860     0.150     1.400     1.854
   140   6 C        3.792     0.026    20.141     6.391
   141   1 H        0.924     0.055     2.256     2.349
   142   6 C        3.854    -0.018    20.867     6.497
   143   1 H        0.924     0.052     2.295     2.369
   144   6 C        3.757    -0.111    22.667     6.788
   145   1 H        0.924     0.041     2.429     2.437
   146   1 H        0.924     0.043     2.410     2.427
   147   1 H        0.925     0.045     2.389     2.417
   148   6 C        3.803    -0.054    21.543     6.608
   149   1 H        0.925     0.023     2.691     2.565
   150   1 H        0.924     0.029     2.601     2.522
   151   6 C        3.752    -0.110    22.661     6.789
   152   1 H        0.925     0.036     2.499     2.472
   153   1 H        0.925     0.029     2.604     2.524
   154   1 H        0.924     0.049     2.336     2.390
   155   6 C        2.753     0.271    22.419     7.753
   156   8 O        0.859    -0.521    24.264     6.604
   157   7 N        2.686    -0.154    24.331     7.326
   158   1 H        0.860     0.223     0.997     1.564
   159   6 C        3.797     0.028    20.112     6.386
   160   1 H        0.925     0.083     1.947     2.182
   161   6 C        3.861    -0.020    20.898     6.501
   162   1 H        0.924     0.070     2.081     2.256
   163   6 C        3.770    -0.120    22.824     6.808
   164   1 H        0.924     0.039     2.466     2.456
   165   1 H        0.925     0.052     2.296     2.369
   166   1 H        0.924     0.057     2.232     2.337
   167   6 C        3.817    -0.058    21.606     6.616
   168   1 H        0.924     0.017     2.773     2.604
   169   1 H        0.925     0.037     2.493     2.469
   170   6 C        3.752    -0.110    22.657     6.788
   171   1 H        0.924     0.032     2.552     2.498
   172   1 H        0.925     0.055     2.254     2.348
   173   1 H        0.925     0.035     2.515     2.480
   174   6 C        2.763     0.206    23.626     7.960
   175   8 O        0.856    -0.361    20.910     6.131
   176   1 H        0.860     0.186     1.180     1.701
   177   1 H        0.923     0.056     2.252     2.347
   178   1 H        0.860     0.169     1.279     1.771
   179   1 H        0.923     0.074     2.038     2.232
   180   1 H        0.860     0.182     1.204     1.719
   181   1 H        0.923     0.063     2.162     2.300
   182   1 H        0.860     0.162     1.321     1.801
   183   1 H        0.923     0.058     2.222     2.331
   184   1 H        0.860     0.177     1.231     1.738
   185   1 H        0.923     0.073     2.051     2.240

 Mol. C6AA /au·bohr⁶  :     329594.056187
 Mol. C8AA /au·bohr⁸  :    7376441.899147
 Mol. α(0) /au        :        866.554539


Wiberg/Mayer (AO) data.
largest (>0.10) Wiberg bond orders for each atom

 ---------------------------------------------------------------------------
     #   Z sym  total        # sym  WBO       # sym  WBO       # sym  WBO
 ---------------------------------------------------------------------------
     1   7 N    3.024 --     3 C    1.031     2 H    0.958   176 H    0.951
     2   1 H    0.975 --     1 N    0.958
     3   6 C    3.981 --     1 N    1.031     4 H    0.952     5 C    0.951
                            19 C    0.936
     4   1 H    0.996 --     3 C    0.952
     5   6 C    3.991 --     8 C    1.014     6 H    0.965     7 H    0.959
                             3 C    0.951
     6   1 H    0.992 --     5 C    0.965
     7   1 H    0.997 --     5 C    0.959
     8   6 C    3.987 --    17 C    1.416     9 C    1.402     5 C    1.014
                            13 C    0.109
     9   6 C    3.988 --    11 C    1.452     8 C    1.402    10 H    0.967
                            15 C    0.110
    10   1 H    0.997 --     9 C    0.967
    11   6 C    3.989 --     9 C    1.452    13 C    1.429    12 H    0.970
                            17 C    0.111
    12   1 H    0.997 --    11 C    0.970
    13   6 C    3.986 --    15 C    1.441    11 C    1.429    14 H    0.971
                             8 C    0.109
    14   1 H    0.998 --    13 C    0.971
    15   6 C    3.987 --    13 C    1.441    17 C    1.437    16 H    0.972
                             9 C    0.110
    16   1 H    0.999 --    15 C    0.972
    17   6 C    3.991 --    15 C    1.437     8 C    1.416    18 H    0.967
                            11 C    0.111
    18   1 H    1.000 --    17 C    0.967
    19   6 C    3.930 --    20 O    1.604    21 N    1.306     3 C    0.936
    20   8 O    1.900 --    19 C    1.604    21 N    0.186
    21   7 N    3.471 --    19 C    1.306    23 C    0.986    22 H    0.915
                            20 O    0.186
    22   1 H    0.953 --    21 N    0.915
    23   6 C    3.974 --    31 C    0.995    21 N    0.986    25 C    0.945
                            24 H    0.944
    24   1 H    0.992 --    23 C    0.944
    25   6 C    3.984 --    26 H    0.972    27 H    0.946    23 C    0.945
                            28 C    0.935
    26   1 H    0.998 --    25 C    0.972
    27   1 H    0.997 --    25 C    0.946
    28   6 C    3.938 --    30 O    1.497    29 O    1.480    25 C    0.935
    29   8 O    1.769 --    28 C    1.480    30 O    0.215
    30   8 O    1.788 --    28 C    1.497    29 O    0.215
    31   6 C    3.876 --    32 O    1.873    23 C    0.995   177 H    0.940
    32   8 O    2.035 --    31 C    1.873
    33   7 N    3.013 --    35 C    1.018   178 H    0.956    34 H    0.954
    34   1 H    0.970 --    33 N    0.954
    35   6 C    3.981 --    33 N    1.018    37 C    0.982    48 C    0.948
                            36 H    0.933
    36   1 H    0.995 --    35 C    0.933
    37   6 C    3.993 --    40 C    1.009    35 C    0.982    39 H    0.973
                            38 H    0.971
    38   1 H    0.998 --    37 C    0.971
    39   1 H    0.997 --    37 C    0.973
    40   6 C    3.994 --    37 C    1.009    43 C    0.979    42 H    0.954
                            41 H    0.951
    41   1 H    0.992 --    40 C    0.951
    42   1 H    0.994 --    40 C    0.954
    43   6 C    3.939 --    44 O    1.617    45 N    1.311    40 C    0.979
    44   8 O    1.913 --    43 C    1.617    45 N    0.193
    45   7 N    3.376 --    43 C    1.311    47 H    0.918    46 H    0.917
                            44 O    0.193
    46   1 H    0.938 --    45 N    0.917
    47   1 H    0.939 --    45 N    0.918
    48   6 C    3.939 --    49 O    1.606    50 N    1.295    35 C    0.948
    49   8 O    1.914 --    48 C    1.606    50 N    0.190
    50   7 N    3.468 --    48 C    1.295    52 C    0.985    51 H    0.909
                            49 O    0.190
    51   1 H    0.954 --    50 N    0.909
    52   6 C    3.968 --    50 N    0.985    54 C    0.978    63 C    0.942
                            53 H    0.939
    53   1 H    0.992 --    52 C    0.939
    54   6 C    3.988 --    57 C    1.010    52 C    0.978    56 H    0.974
                            55 H    0.970
    55   1 H    0.996 --    54 C    0.970
    56   1 H    0.997 --    54 C    0.974
    57   6 C    3.995 --    54 C    1.010    58 H    0.971    59 H    0.962
                            60 C    0.939
    58   1 H    0.999 --    57 C    0.971
    59   1 H    0.998 --    57 C    0.962
    60   6 C    3.934 --    61 O    1.494    62 O    1.477    57 C    0.939
    61   8 O    1.778 --    60 C    1.494    62 O    0.214
    62   8 O    1.759 --    60 C    1.477    61 O    0.214
    63   6 C    3.949 --    64 O    1.610    65 N    1.315    52 C    0.942
    64   8 O    1.919 --    63 C    1.610    65 N    0.197
    65   7 N    3.475 --    63 C    1.315    67 C    0.974    66 H    0.906
                            64 O    0.197
    66   1 H    0.960 --    65 N    0.906
    67   6 C    3.959 --    65 N    0.974    69 C    0.961    79 C    0.942
                            68 H    0.940
    68   1 H    0.995 --    67 C    0.940
    69   6 C    3.988 --    71 C    1.008    75 C    1.004    70 H    0.962
                            67 C    0.961
    70   1 H    0.996 --    69 C    0.962
    71   6 C    3.988 --    69 C    1.008    74 H    0.985    73 H    0.983
                            72 H    0.981
    72   1 H    0.998 --    71 C    0.981
    73   1 H    0.999 --    71 C    0.983
    74   1 H    0.996 --    71 C    0.985
    75   6 C    3.992 --    69 C    1.004    77 H    0.986    78 H    0.985
                            76 H    0.984
    76   1 H    0.996 --    75 C    0.984
    77   1 H    0.998 --    75 C    0.986
    78   1 H    0.998 --    75 C    0.985
    79   6 C    3.949 --    80 O    1.625    81 N    1.310    67 C    0.942
    80   8 O    1.958 --    79 C    1.625    81 N    0.196
    81   7 N    3.477 --    79 C    1.310    83 C    0.975    82 H    0.915
                            80 O    0.196
    82   1 H    0.954 --    81 N    0.915
    83   6 C    3.960 --    98 C    0.990    81 N    0.975    85 C    0.945
                            84 H    0.936
    84   1 H    0.991 --    83 C    0.936
    85   6 C    3.981 --    87 C    1.004    91 C    0.998    86 H    0.961
                            83 C    0.945
    86   1 H    0.995 --    85 C    0.961
    87   6 C    3.990 --    85 C    1.004    90 H    0.985    88 H    0.984
                            89 H    0.978
    88   1 H    0.998 --    87 C    0.984
    89   1 H    0.995 --    87 C    0.978
    90   1 H    0.998 --    87 C    0.985
    91   6 C    3.992 --    94 C    1.017    85 C    0.998    92 H    0.974
                            93 H    0.971
    92   1 H    0.998 --    91 C    0.974
    93   1 H    0.998 --    91 C    0.971
    94   6 C    3.990 --    91 C    1.017    96 H    0.987    95 H    0.984
                            97 H    0.984
    95   1 H    0.998 --    94 C    0.984
    96   1 H    0.998 --    94 C    0.987
    97   1 H    0.998 --    94 C    0.984
    98   6 C    3.879 --    99 O    1.879    83 C    0.990   179 H    0.937
    99   8 O    2.033 --    98 C    1.879
   100   7 N    3.018 --   102 C    1.038   101 H    0.954   180 H    0.952
   101   1 H    0.970 --   100 N    0.954
   102   6 C    3.986 --   100 N    1.038   119 C    0.978   104 C    0.949
                           103 H    0.921
   103   1 H    0.993 --   102 C    0.921
   104   6 C    3.992 --   107 C    1.005   106 H    0.974   105 H    0.966
                           102 C    0.949
   105   1 H    0.996 --   104 C    0.966
   106   1 H    0.997 --   104 C    0.974
   107   6 C    3.987 --   108 C    1.419   117 C    1.399   104 C    1.005
   108   6 C    3.990 --   110 C    1.439   107 C    1.419   109 H    0.967
                           115 C    0.109
   109   1 H    0.998 --   108 C    0.967
   110   6 C    3.985 --   108 C    1.439   112 C    1.380   111 H    0.968
                           117 C    0.105
   111   1 H    0.998 --   110 C    0.968
   112   6 C    3.928 --   110 C    1.380   115 C    1.353   113 O    1.066
   113   8 O    2.075 --   112 C    1.066   114 H    0.852
   114   1 H    0.873 --   113 O    0.852
   115   6 C    3.985 --   117 C    1.459   112 C    1.353   116 H    0.970
                           108 C    0.109
   116   1 H    0.998 --   115 C    0.970
   117   6 C    3.986 --   115 C    1.459   107 C    1.399   118 H    0.966
                           110 C    0.105
   118   1 H    0.997 --   117 C    0.966
   119   6 C    3.876 --   120 O    1.878   102 C    0.978   181 H    0.934
   120   8 O    2.039 --   119 C    1.878
   121   7 N    3.003 --   123 C    1.020   182 H    0.957   122 H    0.933
   122   1 H    0.969 --   121 N    0.933
   123   6 C    3.986 --   121 N    1.020   136 C    0.997   124 H    0.954
                           125 C    0.927
   124   1 H    0.996 --   123 C    0.954
   125   6 C    3.988 --   128 C    1.012   126 H    0.969   127 H    0.959
                           123 C    0.927
   126   1 H    0.997 --   125 C    0.969
   127   1 H    0.994 --   125 C    0.959
   128   6 C    3.973 --   134 C    1.570   129 N    1.266   125 C    1.012
   129   7 N    2.993 --   130 C    1.528   128 C    1.266   132 N    0.106
   130   6 C    3.959 --   129 N    1.528   132 N    1.293   131 H    0.964
                           134 C    0.119
   131   1 H    0.997 --   130 C    0.964
   132   7 N    3.582 --   130 C    1.293   134 C    1.192   133 H    0.923
                           129 N    0.106
   133   1 H    0.952 --   132 N    0.923
   134   6 C    3.936 --   128 C    1.570   132 N    1.192   135 H    0.962
                           130 C    0.119
   135   1 H    0.998 --   134 C    0.962
   136   6 C    3.887 --   137 O    1.875   123 C    0.997   183 H    0.940
   137   8 O    2.044 --   136 C    1.875
   138   7 N    3.002 --   140 C    1.012   139 H    0.954   184 H    0.952
   139   1 H    0.977 --   138 N    0.954
   140   6 C    3.978 --   138 N    1.012   142 C    0.963   141 H    0.952
                           155 C    0.940
   141   1 H    0.994 --   140 C    0.952
   142   6 C    3.992 --   144 C    1.008   148 C    0.995   140 C    0.963
                           143 H    0.962
   143   1 H    0.996 --   142 C    0.962
   144   6 C    3.995 --   142 C    1.008   145 H    0.986   147 H    0.981
                           146 H    0.970
   145   1 H    0.998 --   144 C    0.986
   146   1 H    0.998 --   144 C    0.970
   147   1 H    0.998 --   144 C    0.981
   148   6 C    3.993 --   151 C    1.018   142 C    0.995   150 H    0.975
                           149 H    0.971
   149   1 H    0.999 --   148 C    0.971
   150   1 H    0.999 --   148 C    0.975
   151   6 C    3.994 --   148 C    1.018   152 H    0.986   153 H    0.984
                           154 H    0.984
   152   1 H    0.999 --   151 C    0.986
   153   1 H    0.999 --   151 C    0.984
   154   1 H    0.998 --   151 C    0.984
   155   6 C    3.942 --   156 O    1.609   157 N    1.311   140 C    0.940
   156   8 O    1.922 --   155 C    1.609   157 N    0.193
   157   7 N    3.484 --   155 C    1.311   159 C    0.970   158 H    0.913
                           156 O    0.193
   158   1 H    0.950 --   157 N    0.913
   159   6 C    3.966 --   174 C    0.975   157 N    0.970   160 H    0.958
                           161 C    0.952
   160   1 H    0.993 --   159 C    0.958
   161   6 C    3.985 --   163 C    1.005   167 C    0.993   162 H    0.958
                           159 C    0.952
   162   1 H    0.995 --   161 C    0.958
   163   6 C    3.991 --   161 C    1.005   164 H    0.984   165 H    0.984
                           166 H    0.979
   164   1 H    0.998 --   163 C    0.984
   165   1 H    0.997 --   163 C    0.984
   166   1 H    0.996 --   163 C    0.979
   167   6 C    3.991 --   170 C    1.016   161 C    0.993   169 H    0.974
                           168 H    0.972
   168   1 H    1.000 --   167 C    0.972
   169   1 H    0.999 --   167 C    0.974
   170   6 C    3.994 --   167 C    1.016   173 H    0.987   171 H    0.984
                           172 H    0.982
   171   1 H    0.999 --   170 C    0.984
   172   1 H    0.997 --   170 C    0.982
   173   1 H    0.998 --   170 C    0.987
   174   6 C    3.879 --   175 O    1.889   159 C    0.975   185 H    0.937
   175   8 O    2.063 --   174 C    1.889
   176   1 H    0.965 --     1 N    0.951
   177   1 H    0.996 --    31 C    0.940
   178   1 H    0.971 --    33 N    0.956
   179   1 H    0.994 --    98 C    0.937
   180   1 H    0.967 --   100 N    0.952
   181   1 H    0.995 --   119 C    0.934
   182   1 H    0.974 --   121 N    0.957
   183   1 H    0.997 --   136 C    0.940
   184   1 H    0.968 --   138 N    0.952
   185   1 H    0.994 --   174 C    0.937
 ---------------------------------------------------------------------------

Topologies differ in total number of bonds
Writing topology from bond orders to xtbtopo.mol

molecular dipole:
                 x           y           z       tot (Debye)
 q only:     -138.295    -104.574    -161.345
   full:     -138.087    -104.587    -160.787     600.728
molecular quadrupole (traceless):
                xx          xy          yy          xz          yz          zz
 q only:     -225.152  -11022.421    5625.396  -16732.514  -12967.594   -5400.244
  q+dip:     -244.934  -11015.229    5604.641  -16645.610  -12936.671   -5359.707
   full:     -243.290  -11016.024    5606.321  -16647.929  -12934.172   -5363.031


           -------------------------------------------------
          | TOTAL ENERGY             -282.658303367985 Eh   |
          | GRADIENT NORM               0.252214421129 Eh/α |
          | HOMO-LUMO GAP               1.185578052802 eV   |
           -------------------------------------------------

------------------------------------------------------------------------
 * finished run on 2026/01/05 at 09:06:24.578     
------------------------------------------------------------------------
Note: The following floating-point exceptions are signalling: IEEE_UNDERFLOW_FLAG IEEE_DENORMAL
normal termination of xtb
 total:
 * wall-time:     0 d,  0 h,  0 min,  0.936 sec
 *  cpu-time:     0 d,  0 h,  0 min, 13.535 sec
 * ratio c/w:    14.467 speedup
 SCF:
 * wall-time:     0 d,  0 h,  0 min,  0.875 sec
 *  cpu-time:     0 d,  0 h,  0 min, 12.656 sec
 * ratio c/w:    14.468 speedup

