      -----------------------------------------------------------      
     |                   =====================                   |     
     |                           x T B                           |     
     |                   =====================                   |     
     |                         S. Grimme                         |     
     |          Mulliken Center for Theoretical Chemistry        |     
     |                    University of Bonn                     |     
      -----------------------------------------------------------      

   * xtb version 6.7.1 (edcfbbe) compiled by 'conda@c0858423619e' on 2025-09-04

   xtb is free software: you can redistribute it and/or modify it under
   the terms of the GNU Lesser General Public License as published by
   the Free Software Foundation, either version 3 of the License, or
   (at your option) any later version.
   
   xtb is distributed in the hope that it will be useful,
   but WITHOUT ANY WARRANTY; without even the implied warranty of
   MERCHANTABILITY or FITNESS FOR A PARTICULAR PURPOSE.  See the
   GNU Lesser General Public License for more details.
   
   Cite this work as:
   * C. Bannwarth, E. Caldeweyher, S. Ehlert, A. Hansen, P. Pracht,
     J. Seibert, S. Spicher, S. Grimme, WIREs Comput. Mol. Sci., 2020, 11,
     e01493. DOI: 10.1002/wcms.1493
   
   for GFN2-xTB:
   * C. Bannwarth, S. Ehlert and S. Grimme., J. Chem. Theory Comput., 2019,
     15, 1652-1671. DOI: 10.1021/acs.jctc.8b01176
   for GFN1-xTB:
   * S. Grimme, C. Bannwarth, P. Shushkov, J. Chem. Theory Comput., 2017,
     13, 1989-2009. DOI: 10.1021/acs.jctc.7b00118
   for GFN0-xTB:
   * P. Pracht, E. Caldeweyher, S. Ehlert, S. Grimme, ChemRxiv, 2019, preprint.
     DOI: 10.26434/chemrxiv.8326202.v1
   for GFN-FF:
   * S. Spicher and S. Grimme, Angew. Chem. Int. Ed., 2020, 59, 15665-15673.
     DOI: 10.1002/anie.202004239
   
   for ALPB and GBSA implicit solvation:
   * S. Ehlert, M. Stahn, S. Spicher, S. Grimme, J. Chem. Theory Comput.,
     2021, 17, 4250-4261. DOI: 10.1021/acs.jctc.1c00471
   
   for ddCOSMO and CPCM-X implicit solvation:
   * M. Stahn, S. Ehlert, S. Grimme, J. Phys. Chem. A,
     2023, XX, XXXX-XXXX. DOI: 10.1021/acs.jpca.3c04382
   
   for DFT-D4:
   * E. Caldeweyher, C. Bannwarth and S. Grimme, J. Chem. Phys., 2017,
     147, 034112. DOI: 10.1063/1.4993215
   * E. Caldeweyher, S. Ehlert, A. Hansen, H. Neugebauer, S. Spicher,
     C. Bannwarth and S. Grimme, J. Chem. Phys., 2019, 150, 154122.
     DOI: 10.1063/1.5090222
   * E. Caldeweyher, J.-M. Mewes, S. Ehlert and S. Grimme, Phys. Chem. Chem. Phys.
     2020, 22, 8499-8512. DOI: 10.1039/D0CP00502A
   
   for sTDA-xTB:
   * S. Grimme and C. Bannwarth, J. Chem. Phys., 2016, 145, 054103.
     DOI: 10.1063/1.4959605
   
   in the mass-spec context:
   * V. Asgeirsson, C. Bauer and S. Grimme, Chem. Sci., 2017, 8, 4879.
     DOI: 10.1039/c7sc00601b
   * J. Koopman and S. Grimme, ACS Omega 2019, 4, 12, 15120-15133.
     DOI: 10.1021/acsomega.9b02011
   
   for metadynamics refer to:
   * S. Grimme, J. Chem. Theory Comput., 2019, 155, 2847-2862
     DOI: 10.1021/acs.jctc.9b00143
   
   for SPH calculations refer to:
   * S. Spicher and S. Grimme, J. Chem. Theory Comput., 2021, 17, 1701-1714
     DOI: 10.1021/acs.jctc.0c01306
   
   for ONIOM refer to:
   * C. Plett, A. Katbashev, S. Ehlert, S. Grimme, M. Bursch,
     Phys. Chem. Chem. Phys., 2023, 25, 17860-17868. DOI: 10.1039/D3CP02178E
   
   for DIPRO refer to:
   * J. Kohn, N. Gildemeister, S. Grimme, D. Fazzi, A. Hansen,
     J. Chem. Phys., 2023, just accepted.
   
   for PTB refer to:
   * S. Grimme, M. Mueller, A. Hansen, J. Chem. Phys., 2023, 158, 124111.
     DOI: 10.1063/5.0137838
   
   with help from (in alphabetical order)
   P. Atkinson, C. Bannwarth, F. Bohle, G. Brandenburg, E. Caldeweyher
   M. Checinski, S. Dohm, S. Ehlert, S. Ehrlich, I. Gerasimov, C. Hölzer
   A. Katbashev, J. Kohn, J. Koopman, C. Lavigne, S. Lehtola, F. März, M. Müller,
   F. Musil, H. Neugebauer, J. Pisarek, C. Plett, P. Pracht, F. Pultar,
   J. Seibert, P. Shushkov, S. Spicher, M. Stahn, M. Steiner, T. Strunk,
   J. Stückrath, T. Rose, and J. Unsleber
   
 * started run on 2026/01/05 at 09:07:13.852     
   ID    Z sym.   atoms
    1    7 N      1, 21, 33, 48, 64, 83, 104, 112, 115, 121, 140
    2    1 H      2, 4, 6, 7, 10, 12, 14, 16, 18, 22, 24, 26, 27, 34, 36, 38,
                  39, 41, 42, 49, 51, 53, 55-57, 59-61, 65, 67, 69, 71-73,
                  75, 76, 78-80, 84, 86, 88, 89, 92, 94, 97, 99, 101, 105,
                  107, 109, 110, 114, 116, 118, 122, 124, 126, 128-130, 132,
                  133, 135-137, 141, 143, 145, 147-149, 151, 152, 154-156,
                  159-168
    3    6 C      3, 5, 8, 9, 11, 13, 15, 17, 19, 23, 25, 28, 31, 35, 37, 40,
                  43, 46, 50, 52, 54, 58, 62, 66, 68, 70, 74, 77, 81, 85, 87,
                  90, 91, 93, 95, 98, 100, 102, 106, 108, 111, 113, 117, 119,
                  123, 125, 127, 131, 134, 138, 142, 144, 146, 150, 153, 157
    4    8 O      20, 29, 30, 32, 44, 45, 47, 63, 82, 96, 103, 120, 139, 158

           -------------------------------------------------
          |                Calculation Setup                |
           -------------------------------------------------

          program call               : xtb /home/antonio_mesquita/Documentos/gmx_ISA_project/testes_arquivos_primeiros/gmx_ISA_testes/testes_qm_xtb/QM_analysis/QM_FRAMES_CAPPED/frame_3200ps/residues_pocket_capped_3200ps.xyz --gfn 2 --alpb water --chrg -2 --etemp 1500 --cycles 1000
          coordinate file            : /home/antonio_mesquita/Documentos/gmx_ISA_project/testes_arquivos_primeiros/gmx_ISA_testes/testes_qm_xtb/QM_analysis/QM_FRAMES_CAPPED/frame_3200ps/residues_pocket_capped_3200ps.xyz
          omp threads                :                    16


molecular fragmentation (1/2 indicates fragments):
111111111111111111111111111111112222222222222222222222222222222222222222
222222222222222222222222222222222222222222222222222222222222222222222222
222222222222221122222222
# atoms in fragment 1/2:    34   134
 fragment masses (1/2) :      263.27      875.09
CMA distance (Bohr)    :  15.645
constraining FC (au)   :  0.0500

           -------------------------------------------------
          |                 G F N 2 - x T B                 |
           -------------------------------------------------

        Reference                      10.1021/acs.jctc.8b01176
      * Hamiltonian:
        H0-scaling (s, p, d)           1.850000    2.230000    2.230000
        zeta-weighting                 0.500000
      * Dispersion:
        s8                             2.700000
        a1                             0.520000
        a2                             5.000000
        s9                             5.000000
      * Repulsion:
        kExp                           1.500000    1.000000
        rExp                           1.000000
      * Coulomb:
        alpha                          2.000000
        third order                    shell-resolved
        anisotropic                    true
        a3                             3.000000
        a5                             4.000000
        cn-shift                       1.200000
        cn-exp                         4.000000
        max-rad                        5.000000

      * Solvation model:               ALPB
        Solvent                        water
        Parameter file                 internal GFN2-xTB/ALPB
        Dielectric constant                8.0200E+01
        Reference state                gsolv [1 M gas/solution]
        Free energy shift                  1.0808E-03 Eh       6.7819E-01 kcal/mol
        Temperature                        2.9815E+02 K
        Density                            1.0000E+00 kg/L
        Solvent mass                       1.8000E+01 g/mol
        Interaction kernel             P16
        Born radius scaling (c1)           1.4744E+00
        Born radii integrator          GBOBC
        Born offset                        0.0000E+00 a0       0.0000E+00 AA
        H-bond correction              true
        Ion screening                  false
        Surface tension                    1.0000E-05 Eh       1.5569E+01 dyn/cm
        Grid points                               230 per atom

          ...................................................
          :                      SETUP                      :
          :.................................................:
          :  # basis functions                 411          :
          :  # atomic orbitals                 411          :
          :  # shells                          249          :
          :  # electrons                       452          :
          :  max. iterations                   250          :
          :  Hamiltonian                  GFN2-xTB          :
          :  restarted?                      false          :
          :  GBSA solvation                   true          :
          :  PC potential                    false          :
          :  electronic temp.         1500.0000000     K    :
          :  accuracy                    1.0000000          :
          :  -> integral cutoff          0.2500000E+02      :
          :  -> integral neglect         0.1000000E-07      :
          :  -> SCF convergence          0.1000000E-05 Eh   :
          :  -> wf. convergence          0.1000000E-03 e    :
          :  Broyden damping             0.4000000          :
          :  net charge                         -2          :
          :  unpaired electrons                  0          :
          ...................................................

 iter      E             dE          RMSdq      gap      omega  full diag
   1   -256.3608957 -0.256361E+03  0.447E+00    1.89       0.0  T
   2   -256.9236256 -0.562730E+00  0.229E+00    1.20       1.0  T
   3   -256.9423469 -0.187213E-01  0.126E+00    1.64       1.0  T
   4   -256.9705799 -0.282330E-01  0.285E-01    1.11       1.0  T
   5   -256.9769763 -0.639639E-02  0.116E-01    1.28       1.0  T
   6   -256.9772900 -0.313659E-03  0.640E-02    1.26       1.0  T
   7   -256.9774312 -0.141167E-03  0.240E-02    1.25       1.0  T
   8   -256.9774494 -0.182962E-04  0.908E-03    1.26       1.0  T
   9   -256.9774519 -0.240781E-05  0.450E-03    1.26       1.7  T
  10   -256.9774525 -0.624145E-06  0.210E-03    1.26       3.7  T
  11   -256.9774526 -0.136986E-06  0.101E-03    1.26       7.6  T
  12   -256.9774527 -0.459685E-07  0.477E-04    1.26      16.2  T
  13   -256.9774527 -0.726828E-08  0.237E-04    1.26      32.5  T

   *** convergence criteria satisfied after 13 iterations ***

         #    Occupation            Energy/Eh            Energy/eV
      -------------------------------------------------------------
         1        2.0000           -0.7332270             -19.9521
       ...           ...                  ...                  ...
       220        2.0000           -0.3677110             -10.0059
       221        1.9996           -0.3564057              -9.6983
       222        1.9986           -0.3500417              -9.5251
       223        1.9977           -0.3476507              -9.4601
       224        1.9939           -0.3429939              -9.3333
       225        1.9921           -0.3417785              -9.3003
       226        1.9846           -0.3385582              -9.2126 (HOMO)
       227        0.0153           -0.2923820              -7.9561 (LUMO)
       228        0.0062           -0.2880386              -7.8379
       229        0.0055           -0.2875253              -7.8240
       230        0.0050           -0.2869998              -7.8097
       231        0.0015           -0.2811933              -7.6517
       ...           ...                  ...                  ...
       411                          0.6384634              17.3735
      -------------------------------------------------------------
                  HL-Gap            0.0461761 Eh            1.2565 eV
             Fermi-level           -0.3154824 Eh           -8.5847 eV

 SCC (total)                   0 d,  0 h,  0 min,  1.087 sec
 SCC setup                      ...        0 min,  0.009 sec (  0.824%)
 Dispersion                     ...        0 min,  0.015 sec (  1.370%)
 classical contributions        ...        0 min,  0.005 sec (  0.442%)
 integral evaluation            ...        0 min,  0.037 sec (  3.382%)
 iterations                     ...        0 min,  0.890 sec ( 81.809%)
 molecular gradient             ...        0 min,  0.130 sec ( 11.998%)
 printout                       ...        0 min,  0.002 sec (  0.171%)

         :::::::::::::::::::::::::::::::::::::::::::::::::::::
         ::                     SUMMARY                     ::
         :::::::::::::::::::::::::::::::::::::::::::::::::::::
         :: total energy            -253.862863118818 Eh    ::
         :: total w/o Gsasa/hb      -253.846656931112 Eh    ::
         :: gradient norm              0.245206792693 Eh/a0 ::
         :: HOMO-LUMO gap              1.256516052385 eV    ::
         ::.................................................::
         :: SCC energy              -256.969471043182 Eh    ::
         :: -> isotropic ES            0.961986296306 Eh    ::
         :: -> anisotropic ES          0.026320227963 Eh    ::
         :: -> anisotropic XC          0.101909747389 Eh    ::
         :: -> dispersion             -0.181352822155 Eh    ::
         :: -> Gsolv                  -0.339048646523 Eh    ::
         ::    -> Gelec               -0.322842458817 Eh    ::
         ::    -> Gsasa                0.012075951637 Eh    ::
         ::    -> Ghb                 -0.029362899041 Eh    ::
         ::    -> Gshift               0.001080759698 Eh    ::
         :: repulsion energy           3.106607924364 Eh    ::
         :: add. restraining           0.000000000000 Eh    ::
         :: total charge              -2.000000000392 e     ::
         :::::::::::::::::::::::::::::::::::::::::::::::::::::

           -------------------------------------------------
          |                Property Printout                |
           -------------------------------------------------

    * Orbital Energies and Occupations

         #    Occupation            Energy/Eh            Energy/eV
      -------------------------------------------------------------
         1        2.0000           -0.7332270             -19.9521
       ...           ...                  ...                  ...
       214        2.0000           -0.3878549             -10.5541
       215        2.0000           -0.3838757             -10.4458
       216        2.0000           -0.3770566             -10.2602
       217        2.0000           -0.3748803             -10.2010
       218        2.0000           -0.3705938             -10.0844
       219        2.0000           -0.3691211             -10.0443
       220        2.0000           -0.3677110             -10.0059
       221        1.9996           -0.3564057              -9.6983
       222        1.9986           -0.3500417              -9.5251
       223        1.9977           -0.3476507              -9.4601
       224        1.9939           -0.3429939              -9.3333
       225        1.9921           -0.3417785              -9.3003
       226        1.9846           -0.3385582              -9.2126 (HOMO)
       227        0.0153           -0.2923820              -7.9561 (LUMO)
       228        0.0062           -0.2880386              -7.8379
       229        0.0055           -0.2875253              -7.8240
       230        0.0050           -0.2869998              -7.8097
       231        0.0015           -0.2811933              -7.6517
       232                         -0.2270724              -6.1790
       233                         -0.2252706              -6.1299
       234                         -0.2233498              -6.0777
       235                         -0.2214864              -6.0270
       236                         -0.2169217              -5.9027
       237                         -0.2140376              -5.8243
       ...                                ...                  ...
       411                          0.6384634              17.3735
      -------------------------------------------------------------
                  HL-Gap            0.0461761 Eh            1.2565 eV
             Fermi-level           -0.3154824 Eh           -8.5847 eV

     #   Z          covCN         q      C6AA      α(0)
     1   7 N        2.634    -0.380    29.819     8.110
     2   1 H        0.860     0.162     1.325     1.803
     3   6 C        3.787     0.034    20.023     6.373
     4   1 H        0.924     0.063     2.165     2.301
     5   6 C        3.813    -0.071    21.839     6.652
     6   1 H        0.924     0.064     2.150     2.293
     7   1 H        0.925     0.043     2.405     2.425
     8   6 C        2.967     0.013    27.717     8.636
     9   6 C        2.912    -0.045    29.107     8.847
    10   1 H        0.926     0.051     2.308     2.376
    11   6 C        2.913    -0.043    29.064     8.840
    12   1 H        0.926     0.049     2.334     2.389
    13   6 C        2.912    -0.045    29.122     8.849
    14   1 H        0.926     0.042     2.426     2.435
    15   6 C        2.912    -0.035    28.863     8.810
    16   1 H        0.925     0.024     2.677     2.559
    17   6 C        2.913    -0.034    28.852     8.808
    18   1 H        0.926     0.012     2.852     2.641
    19   6 C        2.753     0.269    22.453     7.759
    20   8 O        0.861    -0.526    24.372     6.619
    21   7 N        2.700    -0.167    24.612     7.368
    22   1 H        0.860     0.220     1.011     1.575
    23   6 C        3.793     0.048    19.776     6.333
    24   1 H        0.925     0.087     1.904     2.158
    25   6 C        3.818    -0.079    21.991     6.674
    26   1 H        0.924     0.043     2.410     2.428
    27   1 H        0.924     0.067     2.118     2.276
    28   6 C        2.688     0.363    20.837     7.470
    29   8 O        0.857    -0.648    27.315     7.007
    30   8 O        0.857    -0.665    27.760     7.064
    31   6 C        2.775     0.212    23.513     7.942
    32   8 O        0.856    -0.368    21.046     6.151
    33   7 N        2.633    -0.376    29.701     8.094
    34   1 H        0.860     0.165     1.303     1.788
    35   6 C        3.789     0.028    20.110     6.387
    36   1 H        0.924     0.034     2.532     2.489
    37   6 C        3.816    -0.038    21.233     6.558
    38   1 H        0.925     0.025     2.657     2.549
    39   1 H        0.925     0.030     2.584     2.514
    40   6 C        3.803    -0.088    22.181     6.705
    41   1 H        0.924     0.036     2.497     2.471
    42   1 H        0.925     0.040     2.449     2.447
    43   6 C        2.693     0.364    20.823     7.468
    44   8 O        0.858    -0.662    27.701     7.056
    45   8 O        0.856    -0.668    27.863     7.077
    46   6 C        2.754     0.264    22.553     7.777
    47   8 O        0.858    -0.536    24.599     6.650
    48   7 N        2.693    -0.167    24.607     7.367
    49   1 H        0.860     0.219     1.013     1.576
    50   6 C        3.795     0.024    20.180     6.397
    51   1 H        0.925     0.074     2.038     2.233
    52   6 C        3.858    -0.015    20.800     6.486
    53   1 H        0.925     0.061     2.186     2.312
    54   6 C        3.754    -0.107    22.598     6.779
    55   1 H        0.925     0.022     2.701     2.570
    56   1 H        0.924     0.054     2.275     2.359
    57   1 H        0.925     0.039     2.459     2.452
    58   6 C        3.755    -0.115    22.751     6.801
    59   1 H        0.924     0.042     2.423     2.434
    60   1 H        0.925     0.060     2.204     2.322
    61   1 H        0.924     0.041     2.442     2.444
    62   6 C        2.756     0.275    22.347     7.741
    63   8 O        0.862    -0.511    24.035     6.573
    64   7 N        2.693    -0.161    24.483     7.349
    65   1 H        0.860     0.213     1.042     1.599
    66   6 C        3.796     0.028    20.103     6.384
    67   1 H        0.925     0.084     1.934     2.175
    68   6 C        3.857    -0.019    20.869     6.497
    69   1 H        0.925     0.065     2.143     2.289
    70   6 C        3.757    -0.126    22.961     6.832
    71   1 H        0.924     0.053     2.287     2.365
    72   1 H        0.925     0.043     2.407     2.426
    73   1 H        0.925     0.059     2.215     2.327
    74   6 C        3.801    -0.061    21.665     6.627
    75   1 H        0.925     0.046     2.372     2.408
    76   1 H        0.925     0.041     2.440     2.443
    77   6 C        3.751    -0.115    22.766     6.805
    78   1 H        0.926     0.048     2.351     2.398
    79   1 H        0.925     0.047     2.359     2.402
    80   1 H        0.924     0.045     2.380     2.412
    81   6 C        2.756     0.210    23.548     7.946
    82   8 O        0.856    -0.375    21.193     6.172
    83   7 N        2.635    -0.372    29.596     8.080
    84   1 H        0.860     0.164     1.308     1.792
    85   6 C        3.783     0.041    19.899     6.354
    86   1 H        0.925     0.089     1.885     2.147
    87   6 C        3.816    -0.067    21.768     6.640
    88   1 H        0.925     0.053     2.281     2.362
    89   1 H        0.924     0.052     2.295     2.369
    90   6 C        2.971     0.008    27.845     8.656
    91   6 C        2.904    -0.042    29.052     8.838
    92   1 H        0.925     0.056     2.243     2.342
    93   6 C        2.918    -0.059    29.460     8.901
    94   1 H        0.926     0.044     2.399     2.422
    95   6 C        2.830     0.136    25.022     8.197
    96   8 O        1.660    -0.463    22.102     6.347
    97   1 H        0.806     0.359     0.568     1.184
    98   6 C        2.910    -0.071    29.763     8.946
    99   1 H        0.927     0.041     2.430     2.437
   100   6 C        2.907    -0.042    29.043     8.837
   101   1 H        0.926     0.052     2.296     2.369
   102   6 C        2.756     0.198    23.782     7.986
   103   8 O        0.856    -0.406    21.806     6.261
   104   7 N        2.638    -0.362    29.347     8.046
   105   1 H        0.860     0.179     1.217     1.728
   106   6 C        3.788     0.046    19.820     6.341
   107   1 H        0.924     0.056     2.250     2.346
   108   6 C        3.806    -0.069    21.812     6.649
   109   1 H        0.924     0.043     2.405     2.425
   110   1 H        0.924     0.076     2.017     2.221
   111   6 C        3.120     0.042    26.880     8.491
   112   7 N        1.897    -0.323    29.234     8.016
   113   6 C        3.056     0.080    26.175     8.390
   114   1 H        0.926     0.052     2.291     2.367
   115   7 N        2.790    -0.100    23.194     7.153
   116   1 H        0.860     0.225     0.988     1.557
   117   6 C        2.994    -0.033    28.819     8.806
   118   1 H        0.926     0.038     2.470     2.458
   119   6 C        2.762     0.209    23.566     7.950
   120   8 O        0.856    -0.370    21.088     6.157
   121   7 N        2.633    -0.381    29.852     8.115
   122   1 H        0.860     0.160     1.338     1.812
   123   6 C        3.787     0.029    20.106     6.387
   124   1 H        0.925     0.064     2.152     2.294
   125   6 C        3.854    -0.028    21.037     6.523
   126   1 H        0.925     0.045     2.389     2.417
   127   6 C        3.756    -0.102    22.509     6.765
   128   1 H        0.925     0.034     2.525     2.485
   129   1 H        0.925     0.035     2.519     2.482
   130   1 H        0.925     0.034     2.530     2.487
   131   6 C        3.806    -0.060    21.653     6.624
   132   1 H        0.924     0.024     2.671     2.556
   133   1 H        0.925     0.034     2.532     2.488
   134   6 C        3.749    -0.117    22.810     6.812
   135   1 H        0.925     0.058     2.221     2.330
   136   1 H        0.924     0.035     2.511     2.478
   137   1 H        0.925     0.032     2.565     2.505
   138   6 C        2.749     0.270    22.438     7.756
   139   8 O        0.860    -0.526    24.372     6.619
   140   7 N        2.697    -0.158    24.427     7.340
   141   1 H        0.860     0.215     1.034     1.593
   142   6 C        3.798     0.031    20.053     6.376
   143   1 H        0.924     0.076     2.016     2.221
   144   6 C        3.856    -0.023    20.950     6.510
   145   1 H        0.925     0.072     2.065     2.247
   146   6 C        3.762    -0.122    22.888     6.820
   147   1 H        0.924     0.042     2.421     2.433
   148   1 H        0.925     0.048     2.349     2.397
   149   1 H        0.925     0.055     2.255     2.348
   150   6 C        3.804    -0.054    21.538     6.607
   151   1 H        0.925     0.024     2.669     2.555
   152   1 H        0.925     0.043     2.408     2.427
   153   6 C        3.750    -0.105    22.575     6.776
   154   1 H        0.925     0.044     2.392     2.418
   155   1 H        0.925     0.029     2.597     2.520
   156   1 H        0.924     0.033     2.540     2.492
   157   6 C        2.765     0.205    23.644     7.963
   158   8 O        0.857    -0.356    20.824     6.118
   159   1 H        0.860     0.183     1.199     1.715
   160   1 H        0.923     0.052     2.297     2.370
   161   1 H        0.860     0.180     1.212     1.725
   162   1 H        0.923     0.075     2.035     2.231
   163   1 H        0.860     0.172     1.263     1.761
   164   1 H        0.923     0.066     2.128     2.281
   165   1 H        0.860     0.156     1.358     1.825
   166   1 H        0.923     0.055     2.258     2.350
   167   1 H        0.860     0.181     1.209     1.722
   168   1 H        0.923     0.078     1.996     2.209

 Mol. C6AA /au·bohr⁶  :     271430.303573
 Mol. C8AA /au·bohr⁸  :    6073454.196471
 Mol. α(0) /au        :        787.556422


Wiberg/Mayer (AO) data.
largest (>0.10) Wiberg bond orders for each atom

 ---------------------------------------------------------------------------
     #   Z sym  total        # sym  WBO       # sym  WBO       # sym  WBO
 ---------------------------------------------------------------------------
     1   7 N    3.019 --     3 C    1.028     2 H    0.955   159 H    0.953
     2   1 H    0.974 --     1 N    0.955
     3   6 C    3.984 --     1 N    1.028     5 C    0.954     4 H    0.949
                            19 C    0.942
     4   1 H    0.995 --     3 C    0.949
     5   6 C    3.992 --     8 C    1.012     6 H    0.970     7 H    0.960
                             3 C    0.954
     6   1 H    0.995 --     5 C    0.970
     7   1 H    0.998 --     5 C    0.960
     8   6 C    3.988 --     9 C    1.415    17 C    1.404     5 C    1.012
                            13 C    0.108
     9   6 C    3.989 --    11 C    1.439     8 C    1.415    10 H    0.968
                            15 C    0.109
    10   1 H    0.997 --     9 C    0.968
    11   6 C    3.990 --     9 C    1.439    13 C    1.438    12 H    0.971
                            17 C    0.113
    12   1 H    0.998 --    11 C    0.971
    13   6 C    3.987 --    11 C    1.438    15 C    1.435    14 H    0.972
                             8 C    0.108
    14   1 H    0.998 --    13 C    0.972
    15   6 C    3.991 --    17 C    1.447    13 C    1.435    16 H    0.972
                             9 C    0.109
    16   1 H    0.999 --    15 C    0.972
    17   6 C    3.991 --    15 C    1.447     8 C    1.404    18 H    0.966
                            11 C    0.113
    18   1 H    1.000 --    17 C    0.966
    19   6 C    3.934 --    20 O    1.619    21 N    1.295     3 C    0.942
    20   8 O    1.921 --    19 C    1.619    21 N    0.186
    21   7 N    3.460 --    19 C    1.295    23 C    0.992    22 H    0.907
                            20 O    0.186
    22   1 H    0.951 --    21 N    0.907
    23   6 C    3.975 --    31 C    0.994    21 N    0.992    25 C    0.947
                            24 H    0.936
    24   1 H    0.992 --    23 C    0.936
    25   6 C    3.985 --    26 H    0.958    27 H    0.953    23 C    0.947
                            28 C    0.942
    26   1 H    0.998 --    25 C    0.958
    27   1 H    0.995 --    25 C    0.953
    28   6 C    3.938 --    29 O    1.495    30 O    1.476    25 C    0.942
    29   8 O    1.787 --    28 C    1.495    30 O    0.214
    30   8 O    1.763 --    28 C    1.476    29 O    0.214
    31   6 C    3.893 --    32 O    1.873    23 C    0.994   160 H    0.939
    32   8 O    2.049 --    31 C    1.873
    33   7 N    3.036 --    35 C    1.025    34 H    0.954   161 H    0.952
    34   1 H    0.973 --    33 N    0.954
    35   6 C    3.985 --    33 N    1.025    37 C    0.973    36 H    0.952
                            46 C    0.938
    36   1 H    0.998 --    35 C    0.952
    37   6 C    3.992 --    40 C    1.003    39 H    0.976    38 H    0.976
                            35 C    0.973
    38   1 H    0.999 --    37 C    0.976
    39   1 H    0.999 --    37 C    0.976
    40   6 C    3.994 --    37 C    1.003    42 H    0.975    41 H    0.961
                            43 C    0.938
    41   1 H    0.999 --    40 C    0.961
    42   1 H    0.998 --    40 C    0.975
    43   6 C    3.932 --    44 O    1.488    45 O    1.482    40 C    0.938
    44   8 O    1.769 --    43 C    1.488    45 O    0.213
    45   8 O    1.766 --    43 C    1.482    44 O    0.213
    46   6 C    3.944 --    47 O    1.606    48 N    1.318    35 C    0.938
    47   8 O    1.909 --    46 C    1.606    48 N    0.194
    48   7 N    3.470 --    46 C    1.318    50 C    0.982    49 H    0.892
                            47 O    0.194
    49   1 H    0.952 --    48 N    0.892
    50   6 C    3.966 --    48 N    0.982    52 C    0.961    62 C    0.946
                            51 H    0.944
    51   1 H    0.994 --    50 C    0.944
    52   6 C    3.989 --    58 C    1.009    54 C    1.005    50 C    0.961
                            53 H    0.960
    53   1 H    0.996 --    52 C    0.960
    54   6 C    3.994 --    52 C    1.005    57 H    0.987    55 H    0.987
                            56 H    0.983
    55   1 H    0.999 --    54 C    0.987
    56   1 H    0.996 --    54 C    0.983
    57   1 H    0.998 --    54 C    0.987
    58   6 C    3.988 --    52 C    1.009    60 H    0.983    61 H    0.983
                            59 H    0.975
    59   1 H    0.998 --    58 C    0.975
    60   1 H    0.996 --    58 C    0.983
    61   1 H    0.998 --    58 C    0.983
    62   6 C    3.950 --    63 O    1.619    64 N    1.302    50 C    0.946
    63   8 O    1.938 --    62 C    1.619    64 N    0.192
    64   7 N    3.471 --    62 C    1.302    66 C    0.977    65 H    0.915
                            63 O    0.192
    65   1 H    0.955 --    64 N    0.915
    66   6 C    3.962 --    81 C    0.981    64 N    0.977    68 C    0.947
                            67 H    0.939
    67   1 H    0.993 --    66 C    0.939
    68   6 C    3.980 --    70 C    1.002    74 C    0.997    69 H    0.959
                            66 C    0.947
    69   1 H    0.995 --    68 C    0.959
    70   6 C    3.981 --    68 C    1.002    71 H    0.982    72 H    0.977
                            73 H    0.976
    71   1 H    0.997 --    70 C    0.982
    72   1 H    0.998 --    70 C    0.977
    73   1 H    0.995 --    70 C    0.976
    74   6 C    3.992 --    77 C    1.016    68 C    0.997    75 H    0.974
                            76 H    0.970
    75   1 H    0.998 --    74 C    0.974
    76   1 H    0.998 --    74 C    0.970
    77   6 C    3.991 --    74 C    1.016    79 H    0.986    80 H    0.986
                            78 H    0.984
    78   1 H    0.998 --    77 C    0.984
    79   1 H    0.998 --    77 C    0.986
    80   1 H    0.998 --    77 C    0.986
    81   6 C    3.882 --    82 O    1.888    66 C    0.981   162 H    0.936
    82   8 O    2.047 --    81 C    1.888
    83   7 N    3.022 --    85 C    1.029    84 H    0.957   163 H    0.955
    84   1 H    0.973 --    83 N    0.957
    85   6 C    3.983 --    83 N    1.029   102 C    0.986    87 C    0.952
                            86 H    0.923
    86   1 H    0.992 --    85 C    0.923
    87   6 C    3.986 --    90 C    1.009    89 H    0.967    88 H    0.961
                            85 C    0.952
    88   1 H    0.996 --    87 C    0.961
    89   1 H    0.997 --    87 C    0.967
    90   6 C    3.985 --   100 C    1.416    91 C    1.397    87 C    1.009
    91   6 C    3.986 --    93 C    1.464    90 C    1.397    92 H    0.967
                            98 C    0.106
    92   1 H    0.997 --    91 C    0.967
    93   6 C    3.988 --    91 C    1.464    95 C    1.363    94 H    0.970
                           100 C    0.107
    94   1 H    0.998 --    93 C    0.970
    95   6 C    3.931 --    98 C    1.379    93 C    1.363    96 O    1.055
    96   8 O    2.051 --    95 C    1.055    97 H    0.851
    97   1 H    0.871 --    96 O    0.851
    98   6 C    3.987 --   100 C    1.437    95 C    1.379    99 H    0.969
                            91 C    0.106
    99   1 H    0.998 --    98 C    0.969
   100   6 C    3.987 --    98 C    1.437    90 C    1.416   101 H    0.963
                            93 C    0.107
   101   1 H    0.997 --   100 C    0.963
   102   6 C    3.875 --   103 O    1.865    85 C    0.986   164 H    0.937
   103   8 O    2.019 --   102 C    1.865
   104   7 N    3.015 --   106 C    1.020   165 H    0.961   105 H    0.924
   105   1 H    0.968 --   104 N    0.924
   106   6 C    3.985 --   104 N    1.020   119 C    0.990   107 H    0.955
                           108 C    0.930
   107   1 H    0.996 --   106 C    0.955
   108   6 C    3.990 --   111 C    1.013   109 H    0.970   110 H    0.961
                           106 C    0.930
   109   1 H    0.998 --   108 C    0.970
   110   1 H    0.994 --   108 C    0.961
   111   6 C    3.974 --   117 C    1.560   112 N    1.275   108 C    1.013
   112   7 N    2.991 --   113 C    1.520   111 C    1.275   115 N    0.104
   113   6 C    3.958 --   112 N    1.520   115 N    1.299   114 H    0.964
                           117 C    0.120
   114   1 H    0.997 --   113 C    0.964
   115   7 N    3.597 --   113 C    1.299   117 C    1.203   116 H    0.921
                           112 N    0.104
   116   1 H    0.949 --   115 N    0.921
   117   6 C    3.937 --   111 C    1.560   115 N    1.203   118 H    0.968
                           113 C    0.120
   118   1 H    0.999 --   117 C    0.968
   119   6 C    3.879 --   120 O    1.884   106 C    0.990   166 H    0.939
   120   8 O    2.052 --   119 C    1.884
   121   7 N    3.004 --   123 C    1.018   167 H    0.952   122 H    0.952
   122   1 H    0.975 --   121 N    0.952
   123   6 C    3.983 --   121 N    1.018   124 H    0.955   125 C    0.953
                           138 C    0.950
   124   1 H    0.995 --   123 C    0.955
   125   6 C    3.990 --   127 C    1.004   131 C    0.996   126 H    0.962
                           123 C    0.953
   126   1 H    0.997 --   125 C    0.962
   127   6 C    3.993 --   125 C    1.004   128 H    0.984   129 H    0.983
                           130 H    0.981
   128   1 H    0.999 --   127 C    0.984
   129   1 H    0.999 --   127 C    0.983
   130   1 H    0.999 --   127 C    0.981
   131   6 C    3.994 --   134 C    1.013   125 C    0.996   133 H    0.979
                           132 H    0.975
   132   1 H    0.999 --   131 C    0.975
   133   1 H    0.999 --   131 C    0.979
   134   6 C    3.989 --   131 C    1.013   136 H    0.986   135 H    0.984
                           137 H    0.981
   135   1 H    0.997 --   134 C    0.984
   136   1 H    0.999 --   134 C    0.986
   137   1 H    0.999 --   134 C    0.981
   138   6 C    3.942 --   139 O    1.607   140 N    1.307   123 C    0.950
   139   8 O    1.913 --   138 C    1.607   140 N    0.192
   140   7 N    3.487 --   138 C    1.307   142 C    0.964   141 H    0.911
                           139 O    0.192
   141   1 H    0.954 --   140 N    0.911
   142   6 C    3.960 --   157 C    0.971   140 N    0.964   143 H    0.958
                           144 C    0.958
   143   1 H    0.994 --   142 C    0.958
   144   6 C    3.985 --   146 C    1.003   150 C    0.997   142 C    0.958
                           145 H    0.956
   145   1 H    0.995 --   144 C    0.956
   146   6 C    3.992 --   144 C    1.003   148 H    0.986   147 H    0.984
                           149 H    0.978
   147   1 H    0.998 --   146 C    0.984
   148   1 H    0.998 --   146 C    0.986
   149   1 H    0.996 --   146 C    0.978
   150   6 C    3.996 --   153 C    1.016   144 C    0.997   152 H    0.976
                           151 H    0.971
   151   1 H    0.999 --   150 C    0.971
   152   1 H    0.998 --   150 C    0.976
   153   6 C    3.994 --   150 C    1.016   156 H    0.986   155 H    0.983
Note: The following floating-point exceptions are signalling: IEEE_UNDERFLOW_FLAG IEEE_DENORMAL
normal termination of xtb
                           154 H    0.981
   154   1 H    0.998 --   153 C    0.981
   155   1 H    0.998 --   153 C    0.983
   156   1 H    0.999 --   153 C    0.986
   157   6 C    3.870 --   158 O    1.885   142 C    0.971   168 H    0.936
   158   8 O    2.065 --   157 C    1.885
   159   1 H    0.967 --     1 N    0.953
   160   1 H    0.997 --    31 C    0.939
   161   1 H    0.967 --    33 N    0.952
   162   1 H    0.994 --    81 C    0.936
   163   1 H    0.970 --    83 N    0.955
   164   1 H    0.995 --   102 C    0.937
   165   1 H    0.975 --   104 N    0.961
   166   1 H    0.997 --   119 C    0.939
   167   1 H    0.967 --   121 N    0.952
   168   1 H    0.993 --   157 C    0.936
 ---------------------------------------------------------------------------

Topologies differ in total number of bonds
Writing topology from bond orders to xtbtopo.mol

molecular dipole:
                 x           y           z       tot (Debye)
 q only:      -76.400     -23.514    -200.722
   full:      -76.235     -24.104    -200.609     548.904
molecular quadrupole (traceless):
                xx          xy          yy          xz          yz          zz
 q only:     7461.184   -1401.990   11249.300  -11583.671   -3959.610  -18710.484
  q+dip:     7458.212   -1440.369   11237.193  -11548.266   -4034.177  -18695.404
   full:     7461.313   -1441.104   11238.385  -11548.655   -4031.182  -18699.697


           -------------------------------------------------
          | TOTAL ENERGY             -253.862863118818 Eh   |
          | GRADIENT NORM               0.245206792693 Eh/α |
          | HOMO-LUMO GAP               1.256516052385 eV   |
           -------------------------------------------------

------------------------------------------------------------------------
 * finished run on 2026/01/05 at 09:07:14.995     
------------------------------------------------------------------------
 total:
 * wall-time:     0 d,  0 h,  0 min,  1.143 sec
 *  cpu-time:     0 d,  0 h,  0 min, 16.298 sec
 * ratio c/w:    14.265 speedup
 SCF:
 * wall-time:     0 d,  0 h,  0 min,  1.093 sec
 *  cpu-time:     0 d,  0 h,  0 min, 15.591 sec
 * ratio c/w:    14.270 speedup

