      -----------------------------------------------------------      
     |                   =====================                   |     
     |                           x T B                           |     
     |                   =====================                   |     
     |                         S. Grimme                         |     
     |          Mulliken Center for Theoretical Chemistry        |     
     |                    University of Bonn                     |     
      -----------------------------------------------------------      

   * xtb version 6.7.1 (edcfbbe) compiled by 'conda@c0858423619e' on 2025-09-04

   xtb is free software: you can redistribute it and/or modify it under
   the terms of the GNU Lesser General Public License as published by
   the Free Software Foundation, either version 3 of the License, or
   (at your option) any later version.
   
   xtb is distributed in the hope that it will be useful,
   but WITHOUT ANY WARRANTY; without even the implied warranty of
   MERCHANTABILITY or FITNESS FOR A PARTICULAR PURPOSE.  See the
   GNU Lesser General Public License for more details.
   
   Cite this work as:
   * C. Bannwarth, E. Caldeweyher, S. Ehlert, A. Hansen, P. Pracht,
     J. Seibert, S. Spicher, S. Grimme, WIREs Comput. Mol. Sci., 2020, 11,
     e01493. DOI: 10.1002/wcms.1493
   
   for GFN2-xTB:
   * C. Bannwarth, S. Ehlert and S. Grimme., J. Chem. Theory Comput., 2019,
     15, 1652-1671. DOI: 10.1021/acs.jctc.8b01176
   for GFN1-xTB:
   * S. Grimme, C. Bannwarth, P. Shushkov, J. Chem. Theory Comput., 2017,
     13, 1989-2009. DOI: 10.1021/acs.jctc.7b00118
   for GFN0-xTB:
   * P. Pracht, E. Caldeweyher, S. Ehlert, S. Grimme, ChemRxiv, 2019, preprint.
     DOI: 10.26434/chemrxiv.8326202.v1
   for GFN-FF:
   * S. Spicher and S. Grimme, Angew. Chem. Int. Ed., 2020, 59, 15665-15673.
     DOI: 10.1002/anie.202004239
   
   for ALPB and GBSA implicit solvation:
   * S. Ehlert, M. Stahn, S. Spicher, S. Grimme, J. Chem. Theory Comput.,
     2021, 17, 4250-4261. DOI: 10.1021/acs.jctc.1c00471
   
   for ddCOSMO and CPCM-X implicit solvation:
   * M. Stahn, S. Ehlert, S. Grimme, J. Phys. Chem. A,
     2023, XX, XXXX-XXXX. DOI: 10.1021/acs.jpca.3c04382
   
   for DFT-D4:
   * E. Caldeweyher, C. Bannwarth and S. Grimme, J. Chem. Phys., 2017,
     147, 034112. DOI: 10.1063/1.4993215
   * E. Caldeweyher, S. Ehlert, A. Hansen, H. Neugebauer, S. Spicher,
     C. Bannwarth and S. Grimme, J. Chem. Phys., 2019, 150, 154122.
     DOI: 10.1063/1.5090222
   * E. Caldeweyher, J.-M. Mewes, S. Ehlert and S. Grimme, Phys. Chem. Chem. Phys.
     2020, 22, 8499-8512. DOI: 10.1039/D0CP00502A
   
   for sTDA-xTB:
   * S. Grimme and C. Bannwarth, J. Chem. Phys., 2016, 145, 054103.
     DOI: 10.1063/1.4959605
   
   in the mass-spec context:
   * V. Asgeirsson, C. Bauer and S. Grimme, Chem. Sci., 2017, 8, 4879.
     DOI: 10.1039/c7sc00601b
   * J. Koopman and S. Grimme, ACS Omega 2019, 4, 12, 15120-15133.
     DOI: 10.1021/acsomega.9b02011
   
   for metadynamics refer to:
   * S. Grimme, J. Chem. Theory Comput., 2019, 155, 2847-2862
     DOI: 10.1021/acs.jctc.9b00143
   
   for SPH calculations refer to:
   * S. Spicher and S. Grimme, J. Chem. Theory Comput., 2021, 17, 1701-1714
     DOI: 10.1021/acs.jctc.0c01306
   
   for ONIOM refer to:
   * C. Plett, A. Katbashev, S. Ehlert, S. Grimme, M. Bursch,
     Phys. Chem. Chem. Phys., 2023, 25, 17860-17868. DOI: 10.1039/D3CP02178E
   
   for DIPRO refer to:
   * J. Kohn, N. Gildemeister, S. Grimme, D. Fazzi, A. Hansen,
     J. Chem. Phys., 2023, just accepted.
   
   for PTB refer to:
   * S. Grimme, M. Mueller, A. Hansen, J. Chem. Phys., 2023, 158, 124111.
     DOI: 10.1063/5.0137838
   
   with help from (in alphabetical order)
   P. Atkinson, C. Bannwarth, F. Bohle, G. Brandenburg, E. Caldeweyher
   M. Checinski, S. Dohm, S. Ehlert, S. Ehrlich, I. Gerasimov, C. Hölzer
   A. Katbashev, J. Kohn, J. Koopman, C. Lavigne, S. Lehtola, F. März, M. Müller,
   F. Musil, H. Neugebauer, J. Pisarek, C. Plett, P. Pracht, F. Pultar,
   J. Seibert, P. Shushkov, S. Spicher, M. Stahn, M. Steiner, T. Strunk,
   J. Stückrath, T. Rose, and J. Unsleber
   
 * started run on 2026/01/05 at 09:06:24.589     
   ID    Z sym.   atoms
    1    6 C      1, 3-11, 14-16, 18, 20, 21, 24-29, 32, 62, 64, 67, 68, 70,
                  72, 74, 76, 78, 82, 84, 87, 90, 95, 99, 101, 104, 107, 110,
                  114, 116, 118, 122, 126, 130, 132, 134, 138, 141, 145, 149,
                  151, 154, 155, 157, 159, 162, 164, 166, 170, 172, 175, 177,
                  181, 183, 187, 189, 191, 195, 198, 202, 206, 208, 210, 214,
                  217, 221
    2    7 N      2, 22, 60, 80, 92, 97, 112, 128, 147, 168, 176, 179, 185,
                  204
    3    8 O      12, 13, 17, 30, 31, 79, 91, 96, 108, 109, 111, 127, 146,
                  160, 167, 184, 203, 222
    4   16 S      19, 23
    5    1 H      33-59, 61, 63, 65, 66, 69, 71, 73, 75, 77, 81, 83, 85, 86,
                  88, 89, 93, 94, 98, 100, 102, 103, 105, 106, 113, 115, 117,
                  119-121, 123-125, 129, 131, 133, 135-137, 139, 140,
                  142-144, 148, 150, 152, 153, 156, 158, 161, 163, 165, 169,
                  171, 173, 174, 178, 180, 182, 186, 188, 190, 192-194, 196,
                  197, 199-201, 205, 207, 209, 211-213, 215, 216, 218-220,
                  223-232

           -------------------------------------------------
          |                Calculation Setup                |
           -------------------------------------------------

          program call               : xtb /home/antonio_mesquita/Documentos/gmx_ISA_project/testes_arquivos_primeiros/gmx_ISA_testes/testes_qm_xtb/QM_analysis/QM_FRAMES_CAPPED/frame_1400ps/complex_capped_1400ps.xyz --gfn 2 --alpb water --chrg 0 --etemp 1500 --cycles 1000
          coordinate file            : /home/antonio_mesquita/Documentos/gmx_ISA_project/testes_arquivos_primeiros/gmx_ISA_testes/testes_qm_xtb/QM_analysis/QM_FRAMES_CAPPED/frame_1400ps/complex_capped_1400ps.xyz
          omp threads                :                    16


molecular fragmentation (1/2 indicates fragments):
111111111111111111111111111111111111111111111111111111111112222222222222
222222222222222222222222222222222222222222222222222222222222222222222222
222222222222222222222222222222222222222222222222222222222222222222222222
2222222222222222
# atoms in fragment 1/2:    59   173
 fragment masses (1/2) :      475.60     1152.41
CMA distance (Bohr)    :   8.582
constraining FC (au)   :  0.0500

           -------------------------------------------------
          |                 G F N 2 - x T B                 |
           -------------------------------------------------

        Reference                      10.1021/acs.jctc.8b01176
      * Hamiltonian:
        H0-scaling (s, p, d)           1.850000    2.230000    2.230000
        zeta-weighting                 0.500000
      * Dispersion:
        s8                             2.700000
        a1                             0.520000
        a2                             5.000000
        s9                             5.000000
      * Repulsion:
        kExp                           1.500000    1.000000
        rExp                           1.000000
      * Coulomb:
        alpha                          2.000000
        third order                    shell-resolved
        anisotropic                    true
        a3                             3.000000
        a5                             4.000000
        cn-shift                       1.200000
        cn-exp                         4.000000
        max-rad                        5.000000

      * Solvation model:               ALPB
        Solvent                        water
        Parameter file                 internal GFN2-xTB/ALPB
        Dielectric constant                8.0200E+01
        Reference state                gsolv [1 M gas/solution]
        Free energy shift                  1.0808E-03 Eh       6.7819E-01 kcal/mol
        Temperature                        2.9815E+02 K
        Density                            1.0000E+00 kg/L
        Solvent mass                       1.8000E+01 g/mol
        Interaction kernel             P16
        Born radius scaling (c1)           1.4744E+00
        Born radii integrator          GBOBC
        Born offset                        0.0000E+00 a0       0.0000E+00 AA
        H-bond correction              true
        Ion screening                  false
        Surface tension                    1.0000E-05 Eh       1.5569E+01 dyn/cm
        Grid points                               230 per atom

          ...................................................
          :                      SETUP                      :
          :.................................................:
          :  # basis functions                 586          :
          :  # atomic orbitals                 584          :
          :  # shells                          348          :
          :  # electrons                       628          :
          :  max. iterations                   250          :
          :  Hamiltonian                  GFN2-xTB          :
          :  restarted?                      false          :
          :  GBSA solvation                   true          :
          :  PC potential                    false          :
          :  electronic temp.         1500.0000000     K    :
          :  accuracy                    1.0000000          :
          :  -> integral cutoff          0.2500000E+02      :
          :  -> integral neglect         0.1000000E-07      :
          :  -> SCF convergence          0.1000000E-05 Eh   :
          :  -> wf. convergence          0.1000000E-03 e    :
          :  Broyden damping             0.4000000          :
          :  net charge                          0          :
          :  unpaired electrons                  0          :
          ...................................................

 iter      E             dE          RMSdq      gap      omega  full diag
   1   -355.3154957 -0.355315E+03  0.448E+00    0.01       0.0  T
   2   -355.9378864 -0.622391E+00  0.259E+00    1.50       1.0  T
   3   -355.8227227  0.115164E+00  0.176E+00    0.09       1.0  T
   4   -356.0986831 -0.275960E+00  0.926E-01    0.53       1.0  T
   5   -356.0982695  0.413651E-03  0.741E-01    0.08       1.0  T
   6   -356.2284216 -0.130152E+00  0.291E-01    0.22       1.0  T
   7   -356.2045051  0.239165E-01  0.388E-01    0.09       1.0  T
   8   -356.2212298 -0.167247E-01  0.268E-01    0.13       1.0  T
   9   -356.2390765 -0.178468E-01  0.860E-02    0.25       1.0  T
  10   -356.2384487  0.627838E-03  0.893E-02    0.25       1.0  T
  11   -356.2394456 -0.996857E-03  0.553E-02    0.25       1.0  T
  12   -356.2395380 -0.924505E-04  0.482E-02    0.29       1.0  T
  13   -356.2401031 -0.565034E-03  0.117E-02    0.28       1.0  T
  14   -356.2401102 -0.716886E-05  0.798E-03    0.29       1.0  T
  15   -356.2401166 -0.636426E-05  0.587E-03    0.28       1.1  T
  16   -356.2401228 -0.623640E-05  0.313E-03    0.28       2.1  T
  17   -356.2401247 -0.190199E-05  0.157E-03    0.28       4.2  T
  18   -356.2401252 -0.430748E-06  0.763E-04    0.28       8.6  T
  19   -356.2401253 -0.131104E-06  0.192E-04    0.28      34.2  T

   *** convergence criteria satisfied after 19 iterations ***

         #    Occupation            Energy/Eh            Energy/eV
      -------------------------------------------------------------
         1        2.0000           -0.7886283             -21.4597
       ...           ...                  ...                  ...
       308        1.9679           -0.3723050             -10.1309
       309        1.9343           -0.3688148             -10.0360
       310        1.8929           -0.3663902              -9.9700
       311        1.8359           -0.3642204              -9.9109
       312        1.8175           -0.3636682              -9.8959
       313        1.8081           -0.3634033              -9.8887
       314        1.7905           -0.3629397              -9.8761 (HOMO)
       315        0.9821           -0.3525792              -9.5942 (LUMO)
       316        0.0000           -0.2934468              -7.9851
       317        0.0000           -0.2912729              -7.9259
       318        0.0000           -0.2864281              -7.7941
       319        0.0000           -0.2861398              -7.7863
       ...           ...                  ...                  ...
       584                          1.0426283              28.3714
      -------------------------------------------------------------
                  HL-Gap            0.0103605 Eh            0.2819 eV
             Fermi-level           -0.3527488 Eh           -9.5988 eV

 SCC (total)                   0 d,  0 h,  0 min,  1.880 sec
 SCC setup                      ...        0 min,  0.011 sec (  0.577%)
 Dispersion                     ...        0 min,  0.016 sec (  0.850%)
 classical contributions        ...        0 min,  0.001 sec (  0.064%)
 integral evaluation            ...        0 min,  0.048 sec (  2.557%)
 iterations                     ...        0 min,  1.614 sec ( 85.840%)
 molecular gradient             ...        0 min,  0.187 sec (  9.932%)
 printout                       ...        0 min,  0.003 sec (  0.179%)

         :::::::::::::::::::::::::::::::::::::::::::::::::::::
         ::                     SUMMARY                     ::
         :::::::::::::::::::::::::::::::::::::::::::::::::::::
         :: total energy            -351.892146436246 Eh    ::
         :: total w/o Gsasa/hb      -351.869319932941 Eh    ::
         :: gradient norm              0.290793159809 Eh/a0 ::
         :: HOMO-LUMO gap              0.281923352775 eV    ::
         ::.................................................::
         :: SCC energy              -356.223785724072 Eh    ::
         :: -> isotropic ES            0.933735327582 Eh    ::
         :: -> anisotropic ES         -0.010097129174 Eh    ::
         :: -> anisotropic XC          0.149133407572 Eh    ::
         :: -> dispersion             -0.279056911989 Eh    ::
         :: -> Gsolv                  -0.261707183845 Eh    ::
         ::    -> Gelec               -0.238880680539 Eh    ::
         ::    -> Gsasa                0.010842738098 Eh    ::
         ::    -> Ghb                 -0.034750001102 Eh    ::
         ::    -> Gshift               0.001080759698 Eh    ::
         :: repulsion energy           4.331639287825 Eh    ::
         :: add. restraining           0.000000000000 Eh    ::
         :: total charge               0.000000000698 e     ::
         :::::::::::::::::::::::::::::::::::::::::::::::::::::

           -------------------------------------------------
          |                Property Printout                |
           -------------------------------------------------

    * Orbital Energies and Occupations

         #    Occupation            Energy/Eh            Energy/eV
      -------------------------------------------------------------
         1        2.0000           -0.7886283             -21.4597
       ...           ...                  ...                  ...
       302        1.9997           -0.3949843             -10.7481
       303        1.9996           -0.3927321             -10.6868
       304        1.9992           -0.3901801             -10.6173
       305        1.9957           -0.3818968             -10.3919
       306        1.9890           -0.3774267             -10.2703
       307        1.9888           -0.3773604             -10.2685
       308        1.9679           -0.3723050             -10.1309
       309        1.9343           -0.3688148             -10.0360
       310        1.8929           -0.3663902              -9.9700
       311        1.8359           -0.3642204              -9.9109
       312        1.8175           -0.3636682              -9.8959
       313        1.8081           -0.3634033              -9.8887
       314        1.7905           -0.3629397              -9.8761 (HOMO)
       315        0.9821           -0.3525792              -9.5942 (LUMO)
       316        0.0000           -0.2934468              -7.9851
       317        0.0000           -0.2912729              -7.9259
       318        0.0000           -0.2864281              -7.7941
       319        0.0000           -0.2861398              -7.7863
       320        0.0000           -0.2844045              -7.7390
       321                         -0.2645889              -7.1998
       322                         -0.2523502              -6.8668
       323                         -0.2509895              -6.8298
       324                         -0.2352967              -6.4028
       325                         -0.2326882              -6.3318
       ...                                ...                  ...
       584                          1.0426283              28.3714
      -------------------------------------------------------------
                  HL-Gap            0.0103605 Eh            0.2819 eV
             Fermi-level           -0.3527488 Eh           -9.5988 eV

     #   Z          covCN         q      C6AA      α(0)
     1   6 C        2.745     0.261    22.594     7.783
     2   7 N        2.691    -0.123    23.668     7.225
     3   6 C        2.868     0.031    27.302     8.565
     4   6 C        3.692     0.083    19.371     6.298
     5   6 C        3.806    -0.070    21.843     6.653
     6   6 C        2.952     0.015    27.681     8.629
     7   6 C        2.927    -0.043    29.057     8.840
     8   6 C        2.902    -0.038    28.946     8.822
     9   6 C        2.922    -0.033    28.829     8.805
    10   6 C        2.901    -0.024    28.606     8.770
    11   6 C        2.928    -0.032    28.810     8.802
    12   8 O        1.702    -0.281    18.663     5.833
    13   8 O        0.857    -0.497    23.723     6.530
    14   6 C        2.717     0.334    21.315     7.558
    15   6 C        3.747    -0.126    22.985     6.838
    16   6 C        3.838     0.015    20.291     6.408
    17   8 O        0.858    -0.469    23.106     6.445
    18   6 C        3.787    -0.034    21.201     6.558
    19  16 S        1.972    -0.177   148.543    20.513
    20   6 C        3.791    -0.044    21.367     6.583
    21   6 C        3.857     0.027    20.080     6.373
    22   7 N        2.728    -0.301    27.736     7.822
    23  16 S        3.832     1.150   102.462    17.037
    24   6 C        2.968    -0.083    30.062     8.993
    25   6 C        2.923    -0.019    28.483     8.752
    26   6 C        2.921    -0.029    28.735     8.791
    27   6 C        2.959     0.038    27.158     8.548
    28   6 C        2.915    -0.046    29.142     8.852
    29   6 C        2.974    -0.039    28.966     8.828
    30   8 O        0.860    -0.657    27.572     7.040
    31   8 O        0.860    -0.625    26.729     6.932
    32   6 C        3.753    -0.134    23.146     6.860
    33   1 H        0.863     0.246     0.901     1.486
    34   1 H        0.923     0.049     2.331     2.387
    35   1 H        0.923     0.060     2.198     2.319
    36   1 H        0.924     0.096     1.821     2.110
    37   1 H        0.924     0.094     1.840     2.121
    38   1 H        0.924     0.045     2.380     2.413
    39   1 H        0.925     0.063     2.164     2.300
    40   1 H        0.925     0.038     2.473     2.459
    41   1 H        0.925     0.027     2.631     2.537
    42   1 H        0.925     0.015     2.803     2.618
    43   1 H        0.924     0.073     2.056     2.242
    44   1 H        0.923     0.070     2.082     2.256
    45   1 H        0.925     0.055     2.260     2.351
    46   1 H        0.923     0.030     2.586     2.515
    47   1 H        0.923     0.068     2.108     2.270
    48   1 H        0.924     0.098     1.800     2.098
    49   1 H        0.923     0.085     1.925     2.170
    50   1 H        0.923     0.108     1.714     2.047
    51   1 H        0.923     0.083     1.947     2.182
    52   1 H        0.923     0.090     1.875     2.142
    53   1 H        0.924     0.080     1.976     2.198
    54   1 H        0.925     0.087     1.904     2.158
    55   1 H        0.925     0.081     1.964     2.191
    56   1 H        0.925     0.054     2.266     2.354
    57   1 H        0.923     0.084     1.943     2.180
    58   1 H        0.924     0.069     2.094     2.263
    59   1 H        0.924     0.070     2.081     2.256
    60   7 N        2.633    -0.328    28.433     7.919
    61   1 H        0.860     0.185     1.187     1.707
    62   6 C        3.785     0.039    19.933     6.359
    63   1 H        0.925     0.090     1.874     2.141
    64   6 C        3.811    -0.076    21.935     6.666
    65   1 H        0.925     0.079     1.990     2.206
    66   1 H        0.925     0.061     2.191     2.315
    67   6 C        2.960     0.015    27.680     8.629
    68   6 C        2.915    -0.043    29.063     8.840
    69   1 H        0.926     0.053     2.287     2.365
    70   6 C        2.908    -0.039    28.961     8.824
    71   1 H        0.926     0.037     2.488     2.467
    72   6 C        2.912    -0.039    28.975     8.827
    73   1 H        0.926     0.034     2.532     2.489
    74   6 C        2.907    -0.036    28.896     8.814
    75   1 H        0.925     0.034     2.527     2.486
    76   6 C        2.915    -0.044    29.083     8.843
    77   1 H        0.926     0.039     2.459     2.452
    78   6 C        2.758     0.209    23.570     7.950
    79   8 O        0.858    -0.376    21.203     6.174
    80   7 N        2.630    -0.346    28.902     7.984
    81   1 H        0.860     0.190     1.159     1.686
    82   6 C        3.787     0.030    20.081     6.383
    83   1 H        0.925     0.074     2.039     2.233
    84   6 C        3.803    -0.058    21.618     6.619
    85   1 H        0.924     0.056     2.245     2.343
    86   1 H        0.924     0.055     2.262     2.352
    87   6 C        3.805    -0.103    22.461     6.747
    88   1 H        0.924     0.077     2.011     2.218
    89   1 H        0.924     0.070     2.090     2.261
    90   6 C        2.742     0.292    22.051     7.689
    91   8 O        0.859    -0.537    24.617     6.652
    92   7 N        2.638    -0.295    27.593     7.802
    93   1 H        0.860     0.243     0.910     1.494
    94   1 H        0.860     0.246     0.901     1.487
    95   6 C        2.753     0.267    22.488     7.765
    96   8 O        0.860    -0.518    24.196     6.595
    97   7 N        2.687    -0.179    24.874     7.407
    98   1 H        0.860     0.217     1.024     1.585
    99   6 C        3.798     0.026    20.135     6.389
   100   1 H        0.924     0.078     2.001     2.212
   101   6 C        3.802    -0.055    21.563     6.611
   102   1 H        0.925     0.066     2.125     2.280
   103   1 H        0.924     0.056     2.241     2.341
   104   6 C        3.803    -0.086    22.144     6.699
   105   1 H        0.924     0.036     2.506     2.475
   106   1 H        0.924     0.044     2.391     2.418
   107   6 C        2.686     0.366    20.787     7.461
   108   8 O        0.857    -0.636    27.017     6.969
   109   8 O        0.856    -0.643    27.197     6.992
   110   6 C        2.749     0.276    22.322     7.736
   111   8 O        0.861    -0.513    24.068     6.578
   112   7 N        2.692    -0.165    24.572     7.362
   113   1 H        0.860     0.196     1.124     1.661
   114   6 C        3.798     0.028    20.103     6.384
   115   1 H        0.925     0.068     2.105     2.269
   116   6 C        3.854    -0.014    20.795     6.486
   117   1 H        0.924     0.054     2.267     2.354
   118   6 C        3.755    -0.110    22.662     6.788
   119   1 H        0.924     0.057     2.234     2.338
   120   1 H        0.925     0.053     2.279     2.361
   121   1 H        0.925     0.023     2.691     2.565
   122   6 C        3.754    -0.118    22.812     6.810
   123   1 H        0.924     0.056     2.242     2.341
   124   1 H        0.925     0.041     2.438     2.442
   125   1 H        0.924     0.048     2.347     2.396
   126   6 C        2.758     0.270    22.436     7.757
   127   8 O        0.860    -0.518    24.197     6.595
   128   7 N        2.688    -0.141    24.062     7.285
   129   1 H        0.860     0.217     1.024     1.585
   130   6 C        3.796     0.039    19.929     6.357
   131   1 H        0.925     0.083     1.952     2.185
   132   6 C        3.864    -0.027    21.010     6.518
   133   1 H        0.925     0.077     2.006     2.215
   134   6 C        3.754    -0.121    22.878     6.820
   135   1 H        0.923     0.040     2.454     2.450
   136   1 H        0.924     0.062     2.176     2.307
   137   1 H        0.925     0.050     2.322     2.383
   138   6 C        3.804    -0.068    21.795     6.646
   139   1 H        0.925     0.043     2.406     2.426
   140   1 H        0.924     0.044     2.397     2.421
   141   6 C        3.749    -0.122    22.913     6.827
   142   1 H        0.925     0.054     2.275     2.359
   143   1 H        0.924     0.040     2.445     2.445
   144   1 H        0.925     0.050     2.322     2.383
   145   6 C        2.767     0.205    23.645     7.964
   146   8 O        0.857    -0.379    21.268     6.183
   147   7 N        2.633    -0.330    28.499     7.928
   148   1 H        0.860     0.194     1.137     1.670
   149   6 C        3.785     0.037    19.969     6.365
   150   1 H        0.924     0.096     1.819     2.109
   151   6 C        3.816    -0.075    21.925     6.664
   152   1 H        0.925     0.073     2.050     2.239
   153   1 H        0.925     0.067     2.117     2.275
   154   6 C        2.969     0.005    27.916     8.667
   155   6 C        2.909    -0.045    29.114     8.848
   156   1 H        0.925     0.044     2.400     2.422
   157   6 C        2.908    -0.073    29.813     8.953
   158   1 H        0.925     0.044     2.393     2.419
   159   6 C        2.835     0.145    24.844     8.168
   160   8 O        1.659    -0.426    21.362     6.239
   161   1 H        0.805     0.324     0.653     1.269
   162   6 C        2.913    -0.060    29.492     8.905
   163   1 H        0.925     0.059     2.213     2.327
   164   6 C        2.912    -0.046    29.134     8.851
   165   1 H        0.927     0.067     2.116     2.274
   166   6 C        2.757     0.201    23.727     7.977
   167   8 O        0.857    -0.385    21.381     6.200
   168   7 N        2.632    -0.306    27.893     7.844
   169   1 H        0.860     0.201     1.103     1.645
   170   6 C        3.793     0.046    19.815     6.339
   171   1 H        0.924     0.064     2.151     2.293
   172   6 C        3.807    -0.078    21.986     6.675
   173   1 H        0.925     0.081     1.965     2.192
   174   1 H        0.925     0.080     1.982     2.202
   175   6 C        3.135     0.045    26.767     8.468
   176   7 N        1.893    -0.339    29.646     8.072
   177   6 C        3.123     0.088    25.877     8.330
   178   1 H        0.925     0.035     2.520     2.483
   179   7 N        2.769    -0.098    23.161     7.148
   180   1 H        0.860     0.221     1.003     1.569
   181   6 C        3.043    -0.041    28.971     8.828
   182   1 H        0.926     0.070     2.087     2.259
   183   6 C        2.760     0.202    23.693     7.971
   184   8 O        0.857    -0.354    20.781     6.112
   185   7 N        2.632    -0.325    28.359     7.909
   186   1 H        0.860     0.193     1.142     1.674
   187   6 C        3.789     0.026    20.150     6.393
   188   1 H        0.924     0.063     2.164     2.301
   189   6 C        3.858    -0.029    21.048     6.525
   190   1 H        0.924     0.057     2.240     2.340
   191   6 C        3.754    -0.129    23.040     6.844
   192   1 H        0.925     0.052     2.295     2.369
   193   1 H        0.924     0.060     2.195     2.317
   194   1 H        0.925     0.051     2.311     2.377
   195   6 C        3.803    -0.063    21.714     6.634
   196   1 H        0.924     0.028     2.614     2.528
   197   1 H        0.924     0.052     2.296     2.370
   198   6 C        3.749    -0.117    22.804     6.811
   199   1 H        0.924     0.045     2.389     2.417
   200   1 H        0.925     0.043     2.413     2.429
   201   1 H        0.924     0.042     2.420     2.433
   202   6 C        2.751     0.271    22.419     7.753
   203   8 O        0.859    -0.520    24.237     6.601
   204   7 N        2.687    -0.158    24.426     7.340
   205   1 H        0.860     0.236     0.939     1.518
   206   6 C        3.794     0.033    20.030     6.373
   207   1 H        0.924     0.077     2.011     2.218
   208   6 C        3.857    -0.028    21.026     6.521
   209   1 H        0.924     0.072     2.060     2.244
   210   6 C        3.766    -0.121    22.850     6.813
   211   1 H        0.925     0.065     2.147     2.291
   212   1 H        0.924     0.032     2.561     2.503
   213   1 H        0.925     0.051     2.303     2.373
   214   6 C        3.818    -0.074    21.898     6.660
   215   1 H        0.924     0.035     2.515     2.480
   216   1 H        0.925     0.048     2.341     2.393
   217   6 C        3.749    -0.116    22.790     6.809
   218   1 H        0.923     0.046     2.373     2.409
   219   1 H        0.924     0.044     2.392     2.419
   220   1 H        0.926     0.047     2.358     2.401
   221   6 C        2.763     0.204    23.657     7.965
   222   8 O        0.858    -0.364    20.978     6.141
   223   1 H        0.860     0.212     1.047     1.603
   224   1 H        0.923     0.061     2.184     2.311
   225   1 H        0.860     0.190     1.157     1.685
   226   1 H        0.923     0.080     1.978     2.199
   227   1 H        0.860     0.199     1.111     1.651
   228   1 H        0.923     0.079     1.994     2.208
   229   1 H        0.860     0.208     1.067     1.618
   230   1 H        0.923     0.071     2.074     2.252
   231   1 H        0.860     0.207     1.071     1.621
   232   1 H        0.923     0.072     2.069     2.249

 Mol. C6AA /au·bohr⁶  :     544299.923196
 Mol. C8AA /au·bohr⁸  :   12690473.723040
 Mol. α(0) /au        :       1125.013259


Wiberg/Mayer (AO) data.
largest (>0.10) Wiberg bond orders for each atom

 ---------------------------------------------------------------------------
     #   Z sym  total        # sym  WBO       # sym  WBO       # sym  WBO
 ---------------------------------------------------------------------------
     1   6 C    3.878 --    17 O    1.658     2 N    1.191    21 C    0.942
     2   7 N    3.490 --     3 C    1.194     1 C    1.191    33 H    0.861
                            17 O    0.134
     3   6 C    3.484 --     2 N    1.194    14 C    1.082     5 C    1.042
     4   6 C    3.916 --    15 C    1.016    34 H    0.969    35 H    0.966
                            12 O    0.932
     5   6 C    3.970 --     3 C    1.042     6 C    0.955    37 H    0.955
                            36 H    0.939
     6   6 C    3.943 --     7 C    1.423    11 C    1.399     5 C    0.955
                             9 C    0.109
     7   6 C    3.984 --     8 C    1.427     6 C    1.423    38 H    0.966
                            10 C    0.110
     8   6 C    3.984 --     9 C    1.447     7 C    1.427    39 H    0.966
                            11 C    0.113
     9   6 C    3.988 --     8 C    1.447    10 C    1.426    40 H    0.962
                             6 C    0.109
    10   6 C    3.989 --    11 C    1.454     9 C    1.426    41 H    0.967
                             7 C    0.110
    11   6 C    3.989 --    10 C    1.454     6 C    1.399    42 H    0.968
                             8 C    0.113
    12   8 O    2.248 --    14 C    1.108     4 C    0.932    13 O    0.149
    13   8 O    1.870 --    14 C    1.602    12 O    0.149
    14   6 C    3.864 --    13 O    1.602    12 O    1.108     3 C    1.082
    15   6 C    3.982 --     4 C    1.016    45 H    0.984    44 H    0.981
                            43 H    0.981
    16   6 C    3.968 --    18 C    1.002    22 N    0.989    46 H    0.969
                            47 H    0.955
    17   8 O    1.903 --     1 C    1.658     2 N    0.134
    18   6 C    3.967 --    16 C    1.002    19 S    0.988    48 H    0.967
                            49 H    0.966
    19  16 S    2.124 --    20 C    0.993    18 C    0.988
    20   6 C    3.968 --    19 S    0.993    21 C    0.992    50 H    0.961
                            51 H    0.959
    21   6 C    3.969 --    20 C    0.992    22 N    0.979     1 C    0.942
                            52 H    0.928
    22   7 N    3.169 --    16 C    0.989    21 C    0.979    23 S    0.883
    23  16 S    4.814 --    31 O    1.572    30 O    1.537    22 N    0.883
                            24 C    0.724
    24   6 C    3.936 --    29 C    1.410    25 C    1.400    23 S    0.724
    25   6 C    3.977 --    26 C    1.448    24 C    1.400    53 H    0.960
                            28 C    0.107
    26   6 C    3.981 --    25 C    1.448    27 C    1.398    54 H    0.956
                            29 C    0.103
    27   6 C    3.981 --    28 C    1.404    26 C    1.398    32 C    1.029
    28   6 C    3.980 --    29 C    1.435    27 C    1.404    55 H    0.964
                            25 C    0.107
    29   6 C    3.985 --    28 C    1.435    24 C    1.410    56 H    0.963
                            26 C    0.103
    30   8 O    1.841 --    23 S    1.537    31 O    0.103
    31   8 O    1.864 --    23 S    1.572    30 O    0.103
    32   6 C    3.987 --    27 C    1.029    58 H    0.981    59 H    0.975
                            57 H    0.955
    33   1 H    0.937 --     2 N    0.861
    34   1 H    0.996 --     4 C    0.969
    35   1 H    0.992 --     4 C    0.966
    36   1 H    0.983 --     5 C    0.939
    37   1 H    0.983 --     5 C    0.955
    38   1 H    0.998 --     7 C    0.966
    39   1 H    0.995 --     8 C    0.966
    40   1 H    0.997 --     9 C    0.962
    41   1 H    0.998 --    10 C    0.967
    42   1 H    0.999 --    11 C    0.968
    43   1 H    0.995 --    15 C    0.981
    44   1 H    0.994 --    15 C    0.981
    45   1 H    0.997 --    15 C    0.984
    46   1 H    0.999 --    16 C    0.969
    47   1 H    0.995 --    16 C    0.955
    48   1 H    0.989 --    18 C    0.967
    49   1 H    0.992 --    18 C    0.966
    50   1 H    0.986 --    20 C    0.961
    51   1 H    0.992 --    20 C    0.959
    52   1 H    0.989 --    21 C    0.928
    53   1 H    0.993 --    25 C    0.960
    54   1 H    0.991 --    26 C    0.956
    55   1 H    0.993 --    28 C    0.964
    56   1 H    0.997 --    29 C    0.963
    57   1 H    0.992 --    32 C    0.955
    58   1 H    0.995 --    32 C    0.981
    59   1 H    0.994 --    32 C    0.975
    60   7 N    2.984 --    62 C    1.027    61 H    0.950   223 H    0.940
    61   1 H    0.966 --    60 N    0.950
    62   6 C    3.968 --    60 N    1.027    78 C    0.979    63 H    0.941
                            64 C    0.930
    63   1 H    0.988 --    62 C    0.941
    64   6 C    3.963 --    67 C    1.014    66 H    0.962    65 H    0.954
                            62 C    0.930
    65   1 H    0.993 --    64 C    0.954
    66   1 H    0.995 --    64 C    0.962
    67   6 C    3.984 --    76 C    1.409    68 C    1.408    64 C    1.014
                            72 C    0.106
    68   6 C    3.984 --    70 C    1.442    67 C    1.408    69 H    0.969
                            74 C    0.112
    69   1 H    0.997 --    68 C    0.969
    70   6 C    3.987 --    68 C    1.442    72 C    1.437    71 H    0.971
                            76 C    0.110
    71   1 H    0.998 --    70 C    0.971
    72   6 C    3.981 --    70 C    1.437    74 C    1.433    73 H    0.972
                            67 C    0.106
    73   1 H    0.998 --    72 C    0.972
    74   6 C    3.989 --    76 C    1.444    72 C    1.433    75 H    0.971
                            68 C    0.112
    75   1 H    0.998 --    74 C    0.971
    76   6 C    3.985 --    74 C    1.444    67 C    1.409    77 H    0.965
                            70 C    0.110
    77   1 H    0.998 --    76 C    0.965
    78   6 C    3.871 --    79 O    1.895    62 C    0.979   224 H    0.934
    79   8 O    2.040 --    78 C    1.895
    80   7 N    2.998 --    82 C    1.031    81 H    0.954   225 H    0.947
    81   1 H    0.964 --    80 N    0.954
    82   6 C    3.974 --    80 N    1.031    84 C    0.976    95 C    0.935
                            83 H    0.934
    83   1 H    0.994 --    82 C    0.934
    84   6 C    3.979 --    87 C    0.992    82 C    0.976    86 H    0.972
                            85 H    0.969
    85   1 H    0.996 --    84 C    0.969
    86   1 H    0.996 --    84 C    0.972
    87   6 C    3.989 --    84 C    0.992    89 H    0.970    90 C    0.969
                            88 H    0.956
    88   1 H    0.993 --    87 C    0.956
    89   1 H    0.995 --    87 C    0.970
    90   6 C    3.941 --    91 O    1.620    92 N    1.325    87 C    0.969
    91   8 O    1.914 --    90 C    1.620    92 N    0.196
    92   7 N    3.394 --    90 C    1.325    93 H    0.920    94 H    0.917
                            91 O    0.196
    93   1 H    0.941 --    92 N    0.920
    94   1 H    0.939 --    92 N    0.917
    95   6 C    3.927 --    96 O    1.604    97 N    1.292    82 C    0.935
    96   8 O    1.915 --    95 C    1.604    97 N    0.188
    97   7 N    3.460 --    95 C    1.292    99 C    0.982    98 H    0.911
                            96 O    0.188
    98   1 H    0.953 --    97 N    0.911
    99   6 C    3.966 --   101 C    0.983    97 N    0.982   110 C    0.947
                           100 H    0.931
   100   1 H    0.993 --    99 C    0.931
   101   6 C    3.988 --   104 C    1.010    99 C    0.983   102 H    0.973
                           103 H    0.972
   102   1 H    0.995 --   101 C    0.973
   103   1 H    0.996 --   101 C    0.972
   104   6 C    3.966 --   101 C    1.010   105 H    0.965   106 H    0.958
                           107 C    0.924
   105   1 H    0.998 --   104 C    0.965
   106   1 H    0.997 --   104 C    0.958
   107   6 C    3.924 --   109 O    1.489   108 O    1.485   104 C    0.924
   108   8 O    1.755 --   107 C    1.485   109 O    0.210
   109   8 O    1.767 --   107 C    1.489   108 O    0.210
   110   6 C    3.949 --   111 O    1.615   112 N    1.305    99 C    0.947
   111   8 O    1.928 --   110 C    1.615   112 N    0.194
   112   7 N    3.474 --   110 C    1.305   114 C    0.981   113 H    0.907
                           111 O    0.194
   113   1 H    0.961 --   112 N    0.907
   114   6 C    3.962 --   112 N    0.981   116 C    0.958   126 C    0.948
                           115 H    0.942
   115   1 H    0.995 --   114 C    0.942
   116   6 C    3.989 --   118 C    1.009   122 C    1.007   117 H    0.961
                           114 C    0.958
   117   1 H    0.996 --   116 C    0.961
   118   6 C    3.991 --   116 C    1.009   120 H    0.984   121 H    0.983
                           119 H    0.982
   119   1 H    0.996 --   118 C    0.982
   120   1 H    0.997 --   118 C    0.984
   121   1 H    0.999 --   118 C    0.983
   122   6 C    3.994 --   116 C    1.007   124 H    0.985   125 H    0.985
                           123 H    0.984
   123   1 H    0.997 --   122 C    0.984
   124   1 H    0.998 --   122 C    0.985
   125   1 H    0.998 --   122 C    0.985
   126   6 C    3.951 --   127 O    1.611   128 N    1.315   114 C    0.948
   127   8 O    1.932 --   126 C    1.611   128 N    0.191
   128   7 N    3.483 --   126 C    1.315   130 C    0.986   129 H    0.912
                           127 O    0.191
   129   1 H    0.953 --   128 N    0.912
   130   6 C    3.964 --   145 C    0.987   128 N    0.986   132 C    0.940
                           131 H    0.931
   131   1 H    0.993 --   130 C    0.931
   132   6 C    3.978 --   138 C    0.998   134 C    0.995   133 H    0.959
                           130 C    0.940
   133   1 H    0.993 --   132 C    0.959
   134   6 C    3.991 --   132 C    0.995   135 H    0.984   136 H    0.981
                           137 H    0.980
   135   1 H    0.998 --   134 C    0.984
   136   1 H    0.995 --   134 C    0.981
   137   1 H    0.998 --   134 C    0.980
   138   6 C    3.993 --   141 C    1.014   132 C    0.998   139 H    0.976
                           140 H    0.968
   139   1 H    0.998 --   138 C    0.976
   140   1 H    0.998 --   138 C    0.968
   141   6 C    3.984 --   138 C    1.014   143 H    0.986   142 H    0.985
                           144 H    0.982
   142   1 H    0.997 --   141 C    0.985
   143   1 H    0.998 --   141 C    0.986
   144   1 H    0.997 --   141 C    0.982
   145   6 C    3.890 --   146 O    1.883   130 C    0.987   226 H    0.935
   146   8 O    2.042 --   145 C    1.883
   147   7 N    2.982 --   149 C    1.035   148 H    0.948   227 H    0.946
   148   1 H    0.962 --   147 N    0.948
   149   6 C    3.969 --   147 N    1.035   166 C    0.986   151 C    0.937
                           150 H    0.914
   150   1 H    0.991 --   149 C    0.914
   151   6 C    3.967 --   154 C    1.014   153 H    0.972   152 H    0.954
                           149 C    0.937
   152   1 H    0.989 --   151 C    0.954
   153   1 H    0.995 --   151 C    0.972
   154   6 C    3.973 --   164 C    1.410   155 C    1.392   151 C    1.014
   155   6 C    3.983 --   157 C    1.467   154 C    1.392   156 H    0.966
                           162 C    0.103
   156   1 H    0.998 --   155 C    0.966
   157   6 C    3.980 --   155 C    1.467   159 C    1.350   158 H    0.965
                           164 C    0.108
   158   1 H    0.998 --   157 C    0.965
   159   6 C    3.917 --   162 C    1.379   157 C    1.350   160 O    1.061
   160   8 O    2.082 --   159 C    1.061   161 H    0.874
   161   1 H    0.895 --   160 O    0.874
   162   6 C    3.975 --   164 C    1.439   159 C    1.379   163 H    0.967
                           155 C    0.103
   163   1 H    0.996 --   162 C    0.967
   164   6 C    3.979 --   162 C    1.439   154 C    1.410   165 H    0.965
                           157 C    0.108
   165   1 H    0.995 --   164 C    0.965
   166   6 C    3.869 --   167 O    1.876   149 C    0.986   228 H    0.932
   167   8 O    2.035 --   166 C    1.876
   168   7 N    2.987 --   170 C    1.027   229 H    0.940   169 H    0.927
   169   1 H    0.960 --   168 N    0.927
   170   6 C    3.971 --   168 N    1.027   183 C    0.979   171 H    0.955
                           172 C    0.927
   171   1 H    0.989 --   170 C    0.955
   172   6 C    3.960 --   175 C    1.012   173 H    0.961   174 H    0.959
                           170 C    0.927
   173   1 H    0.992 --   172 C    0.961
   174   1 H    0.993 --   172 C    0.959
   175   6 C    3.962 --   181 C    1.565   176 N    1.258   172 C    1.012
   176   7 N    2.988 --   177 C    1.529   175 C    1.258   179 N    0.108
   177   6 C    3.959 --   176 N    1.529   179 N    1.305   178 H    0.964
                           181 C    0.110
   178   1 H    0.999 --   177 C    0.964
   179   7 N    3.591 --   177 C    1.305   181 C    1.184   180 H    0.920
                           176 N    0.108
   180   1 H    0.951 --   179 N    0.920
   181   6 C    3.908 --   175 C    1.565   179 N    1.184   182 H    0.962
                           177 C    0.110
   182   1 H    0.995 --   181 C    0.962
   183   6 C    3.879 --   184 O    1.898   170 C    0.979   230 H    0.939
   184   8 O    2.055 --   183 C    1.898
   185   7 N    2.966 --   187 C    1.020   231 H    0.943   186 H    0.940
   186   1 H    0.962 --   185 N    0.940
   187   6 C    3.959 --   185 N    1.020   188 H    0.949   202 C    0.948
                           189 C    0.938
   188   1 H    0.986 --   187 C    0.949
   189   6 C    3.960 --   191 C    1.002   195 C    0.994   190 H    0.961
                           187 C    0.938
   190   1 H    0.995 --   189 C    0.961
   191   6 C    3.988 --   189 C    1.002   192 H    0.981   194 H    0.980
                           193 H    0.976
   192   1 H    0.996 --   191 C    0.981
   193   1 H    0.996 --   191 C    0.976
   194   1 H    0.997 --   191 C    0.980
   195   6 C    3.992 --   198 C    1.019   189 C    0.994   196 H    0.976
                           197 H    0.966
   196   1 H    0.999 --   195 C    0.976
   197   1 H    0.993 --   195 C    0.966
   198   6 C    3.991 --   195 C    1.019   200 H    0.986   199 H    0.983
                           201 H    0.979
   199   1 H    0.997 --   198 C    0.983
   200   1 H    0.998 --   198 C    0.986
   201   1 H    0.998 --   198 C    0.979
   202   6 C    3.939 --   203 O    1.609   204 N    1.309   187 C    0.948
   203   8 O    1.915 --   202 C    1.609   204 N    0.193
   204   7 N    3.486 --   202 C    1.309   206 C    0.977   205 H    0.897
                           203 O    0.193
   205   1 H    0.944 --   204 N    0.897
   206   6 C    3.964 --   204 N    0.977   221 C    0.968   208 C    0.957
Note: The following floating-point exceptions are signalling: IEEE_UNDERFLOW_FLAG IEEE_DENORMAL
normal termination of xtb
                           207 H    0.955
   207   1 H    0.994 --   206 C    0.955
   208   6 C    3.983 --   210 C    1.006   214 C    0.989   206 C    0.957
                           209 H    0.950
   209   1 H    0.995 --   208 C    0.950
   210   6 C    3.991 --   208 C    1.006   213 H    0.983   212 H    0.982
                           211 H    0.979
   211   1 H    0.995 --   210 C    0.979
   212   1 H    0.999 --   210 C    0.982
   213   1 H    0.997 --   210 C    0.983
   214   6 C    3.994 --   217 C    1.013   208 C    0.989   216 H    0.978
                           215 H    0.975
   215   1 H    0.999 --   214 C    0.975
   216   1 H    0.997 --   214 C    0.978
   217   6 C    3.992 --   214 C    1.013   220 H    0.987   219 H    0.987
                           218 H    0.981
   218   1 H    0.998 --   217 C    0.981
   219   1 H    0.997 --   217 C    0.987
   220   1 H    0.998 --   217 C    0.987
   221   6 C    3.880 --   222 O    1.896   206 C    0.968   232 H    0.938
   222   8 O    2.052 --   221 C    1.896
   223   1 H    0.955 --    60 N    0.940
   224   1 H    0.994 --    78 C    0.934
   225   1 H    0.964 --    80 N    0.947
   226   1 H    0.993 --   145 C    0.935
   227   1 H    0.960 --   147 N    0.946
   228   1 H    0.989 --   166 C    0.932
   229   1 H    0.957 --   168 N    0.940
   230   1 H    0.992 --   183 C    0.939
   231   1 H    0.957 --   185 N    0.943
   232   1 H    0.994 --   221 C    0.938
 ---------------------------------------------------------------------------

Topologies differ in total number of bonds
Writing topology from bond orders to xtbtopo.mol

molecular dipole:
                 x           y           z       tot (Debye)
 q only:       -4.248     -15.225     -22.911
   full:       -3.433     -14.637     -22.132      68.007
molecular quadrupole (traceless):
                xx          xy          yy          xz          yz          zz
 q only:     1697.544   -1818.746     738.779   -2707.658   -3236.420   -2436.323
  q+dip:     1722.703   -1712.808     697.492   -2533.171   -3117.573   -2420.195
   full:     1723.866   -1713.536     698.014   -2537.300   -3115.480   -2421.881


           -------------------------------------------------
          | TOTAL ENERGY             -351.892146436246 Eh   |
          | GRADIENT NORM               0.290793159809 Eh/α |
          | HOMO-LUMO GAP               0.281923352775 eV   |
           -------------------------------------------------

------------------------------------------------------------------------
 * finished run on 2026/01/05 at 09:06:26.543     
------------------------------------------------------------------------
 total:
 * wall-time:     0 d,  0 h,  0 min,  1.954 sec
 *  cpu-time:     0 d,  0 h,  0 min, 28.767 sec
 * ratio c/w:    14.723 speedup
 SCF:
 * wall-time:     0 d,  0 h,  0 min,  1.883 sec
 *  cpu-time:     0 d,  0 h,  0 min, 27.694 sec
 * ratio c/w:    14.707 speedup

