      -----------------------------------------------------------      
     |                   =====================                   |     
     |                           x T B                           |     
     |                   =====================                   |     
     |                         S. Grimme                         |     
     |          Mulliken Center for Theoretical Chemistry        |     
     |                    University of Bonn                     |     
      -----------------------------------------------------------      

   * xtb version 6.7.1 (edcfbbe) compiled by 'conda@c0858423619e' on 2025-09-04

   xtb is free software: you can redistribute it and/or modify it under
   the terms of the GNU Lesser General Public License as published by
   the Free Software Foundation, either version 3 of the License, or
   (at your option) any later version.
   
   xtb is distributed in the hope that it will be useful,
   but WITHOUT ANY WARRANTY; without even the implied warranty of
   MERCHANTABILITY or FITNESS FOR A PARTICULAR PURPOSE.  See the
   GNU Lesser General Public License for more details.
   
   Cite this work as:
   * C. Bannwarth, E. Caldeweyher, S. Ehlert, A. Hansen, P. Pracht,
     J. Seibert, S. Spicher, S. Grimme, WIREs Comput. Mol. Sci., 2020, 11,
     e01493. DOI: 10.1002/wcms.1493
   
   for GFN2-xTB:
   * C. Bannwarth, S. Ehlert and S. Grimme., J. Chem. Theory Comput., 2019,
     15, 1652-1671. DOI: 10.1021/acs.jctc.8b01176
   for GFN1-xTB:
   * S. Grimme, C. Bannwarth, P. Shushkov, J. Chem. Theory Comput., 2017,
     13, 1989-2009. DOI: 10.1021/acs.jctc.7b00118
   for GFN0-xTB:
   * P. Pracht, E. Caldeweyher, S. Ehlert, S. Grimme, ChemRxiv, 2019, preprint.
     DOI: 10.26434/chemrxiv.8326202.v1
   for GFN-FF:
   * S. Spicher and S. Grimme, Angew. Chem. Int. Ed., 2020, 59, 15665-15673.
     DOI: 10.1002/anie.202004239
   
   for ALPB and GBSA implicit solvation:
   * S. Ehlert, M. Stahn, S. Spicher, S. Grimme, J. Chem. Theory Comput.,
     2021, 17, 4250-4261. DOI: 10.1021/acs.jctc.1c00471
   
   for ddCOSMO and CPCM-X implicit solvation:
   * M. Stahn, S. Ehlert, S. Grimme, J. Phys. Chem. A,
     2023, XX, XXXX-XXXX. DOI: 10.1021/acs.jpca.3c04382
   
   for DFT-D4:
   * E. Caldeweyher, C. Bannwarth and S. Grimme, J. Chem. Phys., 2017,
     147, 034112. DOI: 10.1063/1.4993215
   * E. Caldeweyher, S. Ehlert, A. Hansen, H. Neugebauer, S. Spicher,
     C. Bannwarth and S. Grimme, J. Chem. Phys., 2019, 150, 154122.
     DOI: 10.1063/1.5090222
   * E. Caldeweyher, J.-M. Mewes, S. Ehlert and S. Grimme, Phys. Chem. Chem. Phys.
     2020, 22, 8499-8512. DOI: 10.1039/D0CP00502A
   
   for sTDA-xTB:
   * S. Grimme and C. Bannwarth, J. Chem. Phys., 2016, 145, 054103.
     DOI: 10.1063/1.4959605
   
   in the mass-spec context:
   * V. Asgeirsson, C. Bauer and S. Grimme, Chem. Sci., 2017, 8, 4879.
     DOI: 10.1039/c7sc00601b
   * J. Koopman and S. Grimme, ACS Omega 2019, 4, 12, 15120-15133.
     DOI: 10.1021/acsomega.9b02011
   
   for metadynamics refer to:
   * S. Grimme, J. Chem. Theory Comput., 2019, 155, 2847-2862
     DOI: 10.1021/acs.jctc.9b00143
   
   for SPH calculations refer to:
   * S. Spicher and S. Grimme, J. Chem. Theory Comput., 2021, 17, 1701-1714
     DOI: 10.1021/acs.jctc.0c01306
   
   for ONIOM refer to:
   * C. Plett, A. Katbashev, S. Ehlert, S. Grimme, M. Bursch,
     Phys. Chem. Chem. Phys., 2023, 25, 17860-17868. DOI: 10.1039/D3CP02178E
   
   for DIPRO refer to:
   * J. Kohn, N. Gildemeister, S. Grimme, D. Fazzi, A. Hansen,
     J. Chem. Phys., 2023, just accepted.
   
   for PTB refer to:
   * S. Grimme, M. Mueller, A. Hansen, J. Chem. Phys., 2023, 158, 124111.
     DOI: 10.1063/5.0137838
   
   with help from (in alphabetical order)
   P. Atkinson, C. Bannwarth, F. Bohle, G. Brandenburg, E. Caldeweyher
   M. Checinski, S. Dohm, S. Ehlert, S. Ehrlich, I. Gerasimov, C. Hölzer
   A. Katbashev, J. Kohn, J. Koopman, C. Lavigne, S. Lehtola, F. März, M. Müller,
   F. Musil, H. Neugebauer, J. Pisarek, C. Plett, P. Pracht, F. Pultar,
   J. Seibert, P. Shushkov, S. Spicher, M. Stahn, M. Steiner, T. Strunk,
   J. Stückrath, T. Rose, and J. Unsleber
   
 * started run on 2026/01/05 at 09:08:00.328     
   ID    Z sym.   atoms
    1    7 N      1, 22, 42, 54, 67, 70, 73, 78, 98, 113, 129, 148, 169, 177,
                  180, 186, 205
    2    1 H      2, 4, 6, 7, 10, 12, 15, 17, 19, 23, 25, 27, 28, 31, 33, 35,
                  37, 39, 43, 45, 47, 48, 55, 57, 59, 60, 62, 63, 65, 66, 68,
                  71, 72, 74, 75, 79, 81, 83, 84, 87, 89, 91, 93, 95, 99,
                  101, 103, 104, 106, 107, 114, 116, 118, 120-122, 124-126,
                  130, 132, 134, 136-138, 140, 141, 143-145, 149, 151, 153,
                  154, 157, 159, 162, 164, 166, 170, 172, 174, 175, 179, 181,
                  183, 187, 189, 191, 193-195, 197, 198, 200-202, 206, 208,
                  210, 212-214, 216, 217, 219-221, 224-239
    3    6 C      3, 5, 8, 9, 11, 13, 16, 18, 20, 24, 26, 29, 30, 32, 34, 36,
                  38, 40, 44, 46, 49, 52, 56, 58, 61, 64, 69, 76, 80, 82, 85,
                  86, 88, 90, 92, 94, 96, 100, 102, 105, 108, 111, 115, 117,
                  119, 123, 127, 131, 133, 135, 139, 142, 146, 150, 152, 155,
                  156, 158, 160, 163, 165, 167, 171, 173, 176, 178, 182, 184,
                  188, 190, 192, 196, 199, 203, 207, 209, 211, 215, 218, 222
    4    8 O      14, 21, 41, 50, 51, 53, 77, 97, 109, 110, 112, 128, 147,
                  161, 168, 185, 204, 223

           -------------------------------------------------
          |                Calculation Setup                |
           -------------------------------------------------

          program call               : xtb /home/antonio_mesquita/Documentos/gmx_ISA_project/testes_arquivos_primeiros/gmx_ISA_testes/testes_qm_xtb/QM_analysis/QM_FRAMES_CAPPED/frame_800ps/residues_pocket_capped_800ps.xyz --gfn 2 --alpb water --chrg -1 --etemp 1500 --cycles 1000
          coordinate file            : /home/antonio_mesquita/Documentos/gmx_ISA_project/testes_arquivos_primeiros/gmx_ISA_testes/testes_qm_xtb/QM_analysis/QM_FRAMES_CAPPED/frame_800ps/residues_pocket_capped_800ps.xyz
          omp threads                :                    16


molecular fragmentation (1/2 indicates fragments):
111111111111111111111222222222222222222222222222222222222222222222222222
222222222222222222222222222222222222222222222222222222222222222222222222
222222222222222222222222222222222222222222222222222222222222222222222222
22222221122222222222222
# atoms in fragment 1/2:    23   216
 fragment masses (1/2) :      165.19     1446.76
CMA distance (Bohr)    :  15.726
constraining FC (au)   :  0.0500

           -------------------------------------------------
          |                 G F N 2 - x T B                 |
           -------------------------------------------------

        Reference                      10.1021/acs.jctc.8b01176
      * Hamiltonian:
        H0-scaling (s, p, d)           1.850000    2.230000    2.230000
        zeta-weighting                 0.500000
      * Dispersion:
        s8                             2.700000
        a1                             0.520000
        a2                             5.000000
        s9                             5.000000
      * Repulsion:
        kExp                           1.500000    1.000000
        rExp                           1.000000
      * Coulomb:
        alpha                          2.000000
        third order                    shell-resolved
        anisotropic                    true
        a3                             3.000000
        a5                             4.000000
        cn-shift                       1.200000
        cn-exp                         4.000000
        max-rad                        5.000000

      * Solvation model:               ALPB
        Solvent                        water
        Parameter file                 internal GFN2-xTB/ALPB
        Dielectric constant                8.0200E+01
        Reference state                gsolv [1 M gas/solution]
        Free energy shift                  1.0808E-03 Eh       6.7819E-01 kcal/mol
        Temperature                        2.9815E+02 K
        Density                            1.0000E+00 kg/L
        Solvent mass                       1.8000E+01 g/mol
        Interaction kernel             P16
        Born radius scaling (c1)           1.4744E+00
        Born radii integrator          GBOBC
        Born offset                        0.0000E+00 a0       0.0000E+00 AA
        H-bond correction              true
        Ion screening                  false
        Surface tension                    1.0000E-05 Eh       1.5569E+01 dyn/cm
        Grid points                               230 per atom

          ...................................................
          :                      SETUP                      :
          :.................................................:
          :  # basis functions                 584          :
          :  # atomic orbitals                 584          :
          :  # shells                          354          :
          :  # electrons                       638          :
          :  max. iterations                   250          :
          :  Hamiltonian                  GFN2-xTB          :
          :  restarted?                      false          :
          :  GBSA solvation                   true          :
          :  PC potential                    false          :
          :  electronic temp.         1500.0000000     K    :
          :  accuracy                    1.0000000          :
          :  -> integral cutoff          0.2500000E+02      :
          :  -> integral neglect         0.1000000E-07      :
          :  -> SCF convergence          0.1000000E-05 Eh   :
          :  -> wf. convergence          0.1000000E-03 e    :
          :  Broyden damping             0.4000000          :
          :  net charge                         -1          :
          :  unpaired electrons                  0          :
          ...................................................

 iter      E             dE          RMSdq      gap      omega  full diag
   1   -361.2189944 -0.361219E+03  0.436E+00    1.66       0.0  T
   2   -361.8850676 -0.666073E+00  0.224E+00    0.95       1.0  T
   3   -361.9068075 -0.217399E-01  0.123E+00    1.68       1.0  T
   4   -361.9532957 -0.464882E-01  0.257E-01    1.14       1.0  T
   5   -361.9600761 -0.678039E-02  0.109E-01    1.25       1.0  T
   6   -361.9603983 -0.322182E-03  0.586E-02    1.21       1.0  T
   7   -361.9605728 -0.174495E-03  0.234E-02    1.20       1.0  T
   8   -361.9605970 -0.242590E-04  0.882E-03    1.21       1.0  T
   9   -361.9606009 -0.383657E-05  0.422E-03    1.20       1.5  T
  10   -361.9606017 -0.776742E-06  0.197E-03    1.20       3.3  T
  11   -361.9606018 -0.164634E-06  0.877E-04    1.20       7.4  T
  12   -361.9606019 -0.456065E-07  0.381E-04    1.20      17.0  T

   *** convergence criteria satisfied after 12 iterations ***

         #    Occupation            Energy/Eh            Energy/eV
      -------------------------------------------------------------
         1        2.0000           -0.7321077             -19.9217
       ...           ...                  ...                  ...
       313        1.9981           -0.3475957              -9.4586
       314        1.9975           -0.3462207              -9.4211
       315        1.9966           -0.3447091              -9.3800
       316        1.9954           -0.3432714              -9.3409
       317        1.9922           -0.3407978              -9.2736
       318        1.9895           -0.3393651              -9.2346
       319        1.9781           -0.3358496              -9.1389 (HOMO)
       320        0.0164           -0.2916747              -7.9369 (LUMO)
       321        0.0125           -0.2903811              -7.9017
       322        0.0094           -0.2890346              -7.8650
       323        0.0094           -0.2890046              -7.8642
       324        0.0018           -0.2812658              -7.6536
       ...           ...                  ...                  ...
       584                          0.6792434              18.4832
      -------------------------------------------------------------
                  HL-Gap            0.0441749 Eh            1.2021 eV
             Fermi-level           -0.3144600 Eh           -8.5569 eV

 SCC (total)                   0 d,  0 h,  0 min,  1.336 sec
 SCC setup                      ...        0 min,  0.010 sec (  0.723%)
 Dispersion                     ...        0 min,  0.024 sec (  1.782%)
 classical contributions        ...        0 min,  0.003 sec (  0.217%)
 integral evaluation            ...        0 min,  0.066 sec (  4.936%)
 iterations                     ...        0 min,  0.988 sec ( 73.944%)
 molecular gradient             ...        0 min,  0.236 sec ( 17.636%)
 printout                       ...        0 min,  0.010 sec (  0.758%)

         :::::::::::::::::::::::::::::::::::::::::::::::::::::
         ::                     SUMMARY                     ::
         :::::::::::::::::::::::::::::::::::::::::::::::::::::
         :: total energy            -357.457344593508 Eh    ::
         :: total w/o Gsasa/hb      -357.424131572216 Eh    ::
         :: gradient norm              0.306189130197 Eh/a0 ::
         :: HOMO-LUMO gap              1.202060252801 eV    ::
         ::.................................................::
         :: SCC energy              -361.951492741180 Eh    ::
         :: -> isotropic ES            1.033007885270 Eh    ::
         :: -> anisotropic ES          0.022379396166 Eh    ::
         :: -> anisotropic XC          0.156184535894 Eh    ::
         :: -> dispersion             -0.250221287070 Eh    ::
         :: -> Gsolv                  -0.293196276304 Eh    ::
         ::    -> Gelec               -0.259983255012 Eh    ::
         ::    -> Gsasa                0.010509982606 Eh    ::
         ::    -> Ghb                 -0.044803763596 Eh    ::
         ::    -> Gshift               0.001080759698 Eh    ::
         :: repulsion energy           4.494148147672 Eh    ::
         :: add. restraining           0.000000000000 Eh    ::
         :: total charge              -1.000000000102 e     ::
         :::::::::::::::::::::::::::::::::::::::::::::::::::::

           -------------------------------------------------
          |                Property Printout                |
           -------------------------------------------------

    * Orbital Energies and Occupations

         #    Occupation            Energy/Eh            Energy/eV
      -------------------------------------------------------------
         1        2.0000           -0.7321077             -19.9217
       ...           ...                  ...                  ...
       307        2.0000           -0.3760209             -10.2320
       308        2.0000           -0.3731686             -10.1544
       309        2.0000           -0.3684999             -10.0274
       310        2.0000           -0.3657981              -9.9539
       311        1.9999           -0.3607907              -9.8176
       312        1.9993           -0.3521426              -9.5823
       313        1.9981           -0.3475957              -9.4586
       314        1.9975           -0.3462207              -9.4211
       315        1.9966           -0.3447091              -9.3800
       316        1.9954           -0.3432714              -9.3409
       317        1.9922           -0.3407978              -9.2736
       318        1.9895           -0.3393651              -9.2346
       319        1.9781           -0.3358496              -9.1389 (HOMO)
       320        0.0164           -0.2916747              -7.9369 (LUMO)
       321        0.0125           -0.2903811              -7.9017
       322        0.0094           -0.2890346              -7.8650
       323        0.0094           -0.2890046              -7.8642
       324        0.0018           -0.2812658              -7.6536
       325        0.0017           -0.2810099              -7.6467
       326        0.0014           -0.2800699              -7.6211
       327        0.0008           -0.2775711              -7.5531
       328                         -0.2311463              -6.2898
       329                         -0.2274006              -6.1879
       330                         -0.2266656              -6.1679
       ...                                ...                  ...
       584                          0.6792434              18.4832
      -------------------------------------------------------------
                  HL-Gap            0.0441749 Eh            1.2021 eV
             Fermi-level           -0.3144600 Eh           -8.5569 eV

     #   Z          covCN         q      C6AA      α(0)
     1   7 N        2.632    -0.371    29.572     8.076
     2   1 H        0.860     0.165     1.300     1.786
     3   6 C        3.783     0.039    19.935     6.360
     4   1 H        0.925     0.073     2.051     2.240
     5   6 C        3.814    -0.078    21.986     6.674
     6   1 H        0.925     0.073     2.049     2.238
     7   1 H        0.925     0.053     2.280     2.361
     8   6 C        2.961    -0.002    28.064     8.689
     9   6 C        2.910    -0.047    29.160     8.855
    10   1 H        0.926     0.027     2.625     2.533
    11   6 C        2.910    -0.071    29.763     8.946
    12   1 H        0.926     0.016     2.788     2.611
    13   6 C        2.835     0.137    24.993     8.193
    14   8 O        1.660    -0.441    21.660     6.283
    15   1 H        0.806     0.334     0.626     1.242
    16   6 C        2.908    -0.070    29.751     8.944
    17   1 H        0.926     0.060     2.195     2.317
    18   6 C        2.912    -0.043    29.075     8.842
    19   1 H        0.926     0.051     2.308     2.376
    20   6 C        2.759     0.208    23.593     7.954
    21   8 O        0.856    -0.391    21.502     6.217
    22   7 N        2.641    -0.379    29.790     8.106
    23   1 H        0.860     0.152     1.388     1.846
    24   6 C        3.784     0.039    19.927     6.359
    25   1 H        0.924     0.069     2.094     2.263
    26   6 C        3.816    -0.073    21.888     6.659
    27   1 H        0.925     0.071     2.072     2.251
    28   1 H        0.925     0.051     2.303     2.373
    29   6 C        2.959     0.006    27.881     8.661
    30   6 C        2.915    -0.047    29.159     8.855
    31   1 H        0.926     0.047     2.364     2.404
    32   6 C        2.909    -0.038    28.944     8.822
    33   1 H        0.926     0.046     2.375     2.410
    34   6 C        2.912    -0.038    28.951     8.823
    35   1 H        0.927     0.040     2.446     2.446
    36   6 C        2.906    -0.034    28.837     8.805
    37   1 H        0.925     0.029     2.602     2.523
    38   6 C        2.914    -0.037    28.923     8.819
    39   1 H        0.926     0.016     2.799     2.616
    40   6 C        2.752     0.271    22.421     7.754
    41   8 O        0.868    -0.530    24.447     6.629
    42   7 N        2.698    -0.165    24.562     7.361
    43   1 H        0.860     0.205     1.079     1.627
    44   6 C        3.794     0.044    19.847     6.344
    45   1 H        0.925     0.102     1.762     2.076
    46   6 C        3.808    -0.086    22.135     6.697
    47   1 H        0.924     0.037     2.487     2.466
    48   1 H        0.925     0.057     2.240     2.341
    49   6 C        2.692     0.368    20.764     7.458
    50   8 O        0.857    -0.622    26.675     6.925
    51   8 O        0.858    -0.596    26.010     6.838
    52   6 C        2.759     0.205    23.654     7.965
    53   8 O        0.856    -0.380    21.278     6.184
    54   7 N        2.631    -0.377    29.754     8.101
    55   1 H        0.860     0.170     1.271     1.766
    56   6 C        3.784     0.039    19.930     6.359
    57   1 H        0.924     0.084     1.937     2.177
    58   6 C        3.809    -0.068    21.798     6.646
    59   1 H        0.924     0.064     2.149     2.293
    60   1 H        0.924     0.055     2.253     2.347
    61   6 C        3.803    -0.080    22.030     6.682
    62   1 H        0.925     0.064     2.150     2.293
    63   1 H        0.924     0.063     2.161     2.299
    64   6 C        3.736    -0.024    21.090     6.554
    65   1 H        0.925     0.087     1.906     2.159
    66   1 H        0.925     0.091     1.869     2.138
    67   7 N        2.693    -0.142    24.081     7.288
    68   1 H        0.860     0.229     0.970     1.543
    69   6 C        2.734     0.241    22.961     7.845
    70   7 N        2.651    -0.273    27.073     7.728
    71   1 H        0.860     0.240     0.922     1.504
    72   1 H        0.861     0.257     0.856     1.449
    73   7 N        2.653    -0.253    26.568     7.655
    74   1 H        0.860     0.238     0.933     1.513
    75   1 H        0.860     0.231     0.960     1.534
    76   6 C        2.761     0.193    23.881     8.003
    77   8 O        0.856    -0.411    21.908     6.275
    78   7 N        2.635    -0.371    29.581     8.078
    79   1 H        0.860     0.173     1.254     1.754
    80   6 C        3.785     0.042    19.891     6.353
    81   1 H        0.925     0.054     2.271     2.356
    82   6 C        3.811    -0.076    21.937     6.667
    83   1 H        0.924     0.060     2.204     2.322
    84   1 H        0.924     0.078     2.004     2.214
    85   6 C        2.959     0.012    27.751     8.641
    86   6 C        2.916    -0.042    29.051     8.839
    87   1 H        0.925     0.033     2.543     2.494
    88   6 C        2.914    -0.034    28.843     8.807
    89   1 H        0.925     0.028     2.619     2.531
    90   6 C        2.908    -0.037    28.927     8.819
    91   1 H        0.925     0.027     2.622     2.532
    92   6 C        2.910    -0.041    29.024     8.834
    93   1 H        0.926     0.038     2.474     2.460
    94   6 C        2.919    -0.045    29.119     8.849
    95   1 H        0.925     0.046     2.368     2.407
    96   6 C        2.759     0.206    23.623     7.959
    97   8 O        0.856    -0.379    21.272     6.184
    98   7 N        2.643    -0.373    29.625     8.084
    99   1 H        0.860     0.158     1.347     1.818
   100   6 C        3.788     0.029    20.092     6.384
   101   1 H        0.924     0.064     2.152     2.294
   102   6 C        3.821    -0.049    21.439     6.589
   103   1 H        0.924     0.035     2.510     2.478
   104   1 H        0.925     0.034     2.524     2.485
   105   6 C        3.801    -0.082    22.064     6.688
   106   1 H        0.925     0.018     2.768     2.602
   107   1 H        0.924     0.030     2.586     2.515
   108   6 C        2.691     0.366    20.792     7.463
   109   8 O        0.858    -0.660    27.646     7.049
   110   8 O        0.858    -0.667    27.816     7.071
   111   6 C        2.747     0.263    22.570     7.779
   112   8 O        0.863    -0.540    24.679     6.661
   113   7 N        2.699    -0.170    24.678     7.378
   114   1 H        0.860     0.208     1.067     1.618
   115   6 C        3.795     0.021    20.220     6.403
   116   1 H        0.925     0.071     2.070     2.250
   117   6 C        3.855    -0.014    20.791     6.485
   118   1 H        0.924     0.055     2.253     2.347
   119   6 C        3.770    -0.111    22.659     6.783
   120   1 H        0.925     0.048     2.348     2.396
   121   1 H        0.923     0.015     2.807     2.620
   122   1 H        0.924     0.064     2.148     2.292
   123   6 C        3.771    -0.110    22.645     6.781
   124   1 H        0.923     0.059     2.212     2.326
   125   1 H        0.925     0.037     2.489     2.467
   126   1 H        0.924     0.038     2.473     2.459
   127   6 C        2.757     0.273    22.382     7.747
   128   8 O        0.858    -0.512    24.054     6.576
   129   7 N        2.692    -0.160    24.458     7.345
   130   1 H        0.861     0.218     1.020     1.582
   131   6 C        3.791     0.030    20.074     6.381
   132   1 H        0.925     0.090     1.882     2.145
   133   6 C        3.860    -0.017    20.831     6.491
   134   1 H        0.924     0.057     2.233     2.337
   135   6 C        3.755    -0.121    22.880     6.820
   136   1 H        0.925     0.072     2.063     2.246
   137   1 H        0.923     0.048     2.341     2.393
   138   1 H        0.924     0.054     2.276     2.359
   139   6 C        3.806    -0.065    21.748     6.639
   140   1 H        0.924     0.042     2.425     2.435
   141   1 H        0.924     0.044     2.400     2.423
   142   6 C        3.751    -0.117    22.811     6.811
   143   1 H        0.925     0.047     2.361     2.403
   144   1 H        0.925     0.048     2.341     2.393
   145   1 H        0.925     0.041     2.442     2.444
   146   6 C        2.763     0.203    23.680     7.969
   147   8 O        0.856    -0.382    21.321     6.191
   148   7 N        2.633    -0.381    29.837     8.113
   149   1 H        0.860     0.165     1.301     1.787
   150   6 C        3.783     0.034    20.014     6.373
   151   1 H        0.924     0.089     1.886     2.148
   152   6 C        3.812    -0.072    21.867     6.656
   153   1 H        0.925     0.071     2.074     2.252
   154   1 H        0.924     0.055     2.254     2.348
   155   6 C        2.965     0.007    27.868     8.659
   156   6 C        2.905    -0.044    29.101     8.845
   157   1 H        0.926     0.050     2.317     2.380
   158   6 C        2.917    -0.063    29.575     8.918
   159   1 H        0.926     0.044     2.401     2.423
   160   6 C        2.830     0.136    25.024     8.197
   161   8 O        1.659    -0.459    22.018     6.334
   162   1 H        0.805     0.363     0.558     1.173
   163   6 C        2.912    -0.078    29.947     8.974
   164   1 H        0.926     0.040     2.444     2.445
   165   6 C        2.907    -0.047    29.156     8.854
   166   1 H        0.926     0.051     2.311     2.377
   167   6 C        2.755     0.198    23.772     7.984
   168   8 O        0.856    -0.400    21.691     6.244
   169   7 N        2.631    -0.368    29.510     8.068
   170   1 H        0.860     0.165     1.304     1.788
   171   6 C        3.789     0.050    19.749     6.329
   172   1 H        0.924     0.044     2.394     2.420
   173   6 C        3.808    -0.075    21.921     6.665
   174   1 H        0.924     0.065     2.146     2.291
   175   1 H        0.924     0.069     2.100     2.266
   176   6 C        3.098     0.045    26.883     8.497
   177   7 N        1.901    -0.321    29.179     8.008
   178   6 C        3.114     0.083    25.997     8.352
   179   1 H        0.926     0.043     2.407     2.426
   180   7 N        2.757    -0.113    23.473     7.196
   181   1 H        0.860     0.232     0.957     1.532
   182   6 C        3.061    -0.029    28.669     8.780
   183   1 H        0.926     0.043     2.408     2.427
   184   6 C        2.761     0.205    23.637     7.962
   185   8 O        0.859    -0.371    21.118     6.161
   186   7 N        2.633    -0.374    29.672     8.090
   187   1 H        0.860     0.173     1.253     1.754
   188   6 C        3.792     0.030    20.081     6.382
   189   1 H        0.924     0.054     2.266     2.354
   190   6 C        3.859    -0.031    21.093     6.532
   191   1 H        0.925     0.048     2.342     2.393
   192   6 C        3.782    -0.108    22.591     6.771
   193   1 H        0.924     0.040     2.446     2.446
   194   1 H        0.925     0.045     2.379     2.412
   195   1 H        0.924     0.022     2.707     2.573
   196   6 C        3.828    -0.059    21.610     6.615
   197   1 H        0.924     0.016     2.794     2.614
   198   1 H        0.924     0.038     2.477     2.461
   199   6 C        3.754    -0.117    22.805     6.809
   200   1 H        0.925     0.040     2.447     2.446
   201   1 H        0.925     0.040     2.448     2.447
   202   1 H        0.925     0.047     2.357     2.401
   203   6 C        2.748     0.270    22.438     7.756
   204   8 O        0.859    -0.526    24.370     6.619
   205   7 N        2.688    -0.164    24.551     7.359
   206   1 H        0.860     0.231     0.959     1.534
   207   6 C        3.797     0.030    20.072     6.379
   208   1 H        0.925     0.079     1.988     2.205
   209   6 C        3.854    -0.017    20.846     6.494
   210   1 H        0.925     0.067     2.116     2.275
   211   6 C        3.753    -0.116    22.780     6.806
   212   1 H        0.924     0.043     2.414     2.430
   213   1 H        0.925     0.047     2.355     2.400
   214   1 H        0.924     0.058     2.224     2.332
   215   6 C        3.805    -0.055    21.565     6.611
   216   1 H        0.925     0.026     2.642     2.542
   217   1 H        0.925     0.031     2.565     2.505
   218   6 C        3.749    -0.105    22.576     6.777
   219   1 H        0.925     0.045     2.388     2.417
   220   1 H        0.924     0.036     2.502     2.474
   221   1 H        0.925     0.031     2.573     2.508
   222   6 C        2.758     0.206    23.627     7.960
   223   8 O        0.856    -0.372    21.120     6.162
   224   1 H        0.860     0.191     1.152     1.682
   225   1 H        0.923     0.053     2.288     2.366
   226   1 H        0.860     0.177     1.232     1.739
   227   1 H        0.923     0.065     2.137     2.286
   228   1 H        0.860     0.175     1.243     1.746
   229   1 H        0.923     0.053     2.280     2.361
   230   1 H        0.860     0.201     1.100     1.643
   231   1 H        0.923     0.038     2.472     2.459
   232   1 H        0.860     0.185     1.187     1.707
   233   1 H        0.923     0.075     2.036     2.231
   234   1 H        0.860     0.177     1.234     1.740
   235   1 H        0.923     0.065     2.142     2.289
   236   1 H        0.860     0.179     1.221     1.731
   237   1 H        0.923     0.069     2.096     2.264
   238   1 H        0.860     0.172     1.259     1.758
   239   1 H        0.923     0.073     2.052     2.240

 Mol. C6AA /au·bohr⁶  :     548441.139594
 Mol. C8AA /au·bohr⁸  :   12344570.120797
 Mol. α(0) /au        :       1126.318544


Wiberg/Mayer (AO) data.
largest (>0.10) Wiberg bond orders for each atom

 ---------------------------------------------------------------------------
     #   Z sym  total        # sym  WBO       # sym  WBO       # sym  WBO
 ---------------------------------------------------------------------------
     1   7 N    3.013 --     3 C    1.032     2 H    0.957   224 H    0.947
     2   1 H    0.973 --     1 N    0.957
     3   6 C    3.987 --     1 N    1.032    20 C    0.997     4 H    0.943
                             5 C    0.924
     4   1 H    0.994 --     3 C    0.943
     5   6 C    3.989 --     8 C    1.012     7 H    0.967     6 H    0.966
                             3 C    0.924
     6   1 H    0.994 --     5 C    0.966
     7   1 H    0.996 --     5 C    0.967
     8   6 C    3.986 --    18 C    1.408     9 C    1.403     5 C    1.012
     9   6 C    3.989 --    11 C    1.450     8 C    1.403    10 H    0.969
                            16 C    0.110
    10   1 H    0.999 --     9 C    0.969
    11   6 C    3.987 --     9 C    1.450    13 C    1.366    12 H    0.968
                            18 C    0.104
    12   1 H    0.999 --    11 C    0.968
    13   6 C    3.936 --    11 C    1.366    16 C    1.363    14 O    1.079
    14   8 O    2.091 --    13 C    1.079    15 H    0.821
    15   1 H    0.888 --    14 O    0.821
    16   6 C    3.983 --    18 C    1.451    13 C    1.363    17 H    0.953
                             9 C    0.110
    17   1 H    0.996 --    16 C    0.953
    18   6 C    3.988 --    16 C    1.451     8 C    1.408    19 H    0.966
                            11 C    0.104
    19   1 H    0.997 --    18 C    0.966
    20   6 C    3.890 --    21 O    1.871     3 C    0.997   225 H    0.939
    21   8 O    2.038 --    20 C    1.871
    22   7 N    3.015 --    24 C    1.021    23 H    0.958   226 H    0.955
    23   1 H    0.977 --    22 N    0.958
    24   6 C    3.983 --    22 N    1.021    26 C    0.959    25 H    0.955
                            40 C    0.943
    25   1 H    0.994 --    24 C    0.955
    26   6 C    3.989 --    29 C    1.008    27 H    0.967    28 H    0.961
                            24 C    0.959
    27   1 H    0.994 --    26 C    0.967
    28   1 H    0.997 --    26 C    0.961
    29   6 C    3.987 --    38 C    1.420    30 C    1.406    26 C    1.008
                            34 C    0.105
    30   6 C    3.989 --    32 C    1.444    29 C    1.406    31 H    0.968
                            36 C    0.113
    31   1 H    0.998 --    30 C    0.968
    32   6 C    3.989 --    30 C    1.444    34 C    1.436    33 H    0.970
                            38 C    0.112
    33   1 H    0.998 --    32 C    0.970
    34   6 C    3.989 --    36 C    1.439    32 C    1.436    35 H    0.972
                            29 C    0.105
    35   1 H    0.998 --    34 C    0.972
    36   6 C    3.990 --    34 C    1.439    38 C    1.432    37 H    0.971
                            30 C    0.113
    37   1 H    0.999 --    36 C    0.971
    38   6 C    3.991 --    36 C    1.432    29 C    1.420    39 H    0.966
                            32 C    0.112
    39   1 H    1.000 --    38 C    0.966
    40   6 C    3.933 --    41 O    1.612    42 N    1.298    24 C    0.943
    41   8 O    1.909 --    40 C    1.612    42 N    0.189
    42   7 N    3.469 --    40 C    1.298    44 C    0.987    43 H    0.915
                            41 O    0.189
    43   1 H    0.958 --    42 N    0.915
    44   6 C    3.971 --    52 C    1.000    42 N    0.987    46 C    0.949
                            45 H    0.924
    45   1 H    0.989 --    44 C    0.924
    46   6 C    3.978 --    47 H    0.969    48 H    0.953    44 C    0.949
                            49 C    0.932
    47   1 H    0.998 --    46 C    0.969
    48   1 H    0.997 --    46 C    0.953
    49   6 C    3.938 --    50 O    1.487    51 O    1.478    46 C    0.932
    50   8 O    1.837 --    49 C    1.487    51 O    0.214
    51   8 O    1.859 --    49 C    1.478    50 O    0.214
    52   6 C    3.877 --    53 O    1.870    44 C    1.000   227 H    0.939
    53   8 O    2.035 --    52 C    1.870
    54   7 N    3.025 --    56 C    1.037    55 H    0.957   228 H    0.954
    55   1 H    0.971 --    54 N    0.957
    56   6 C    3.982 --    54 N    1.037    76 C    0.977    58 C    0.967
                            57 H    0.917
    57   1 H    0.993 --    56 C    0.917
    58   6 C    3.987 --    61 C    1.004    60 H    0.971    59 H    0.970
                            56 C    0.967
    59   1 H    0.996 --    58 C    0.970
    60   1 H    0.997 --    58 C    0.971
    61   6 C    3.990 --    58 C    1.004    64 C    0.998    62 H    0.972
                            63 H    0.970
    62   1 H    0.996 --    61 C    0.972
    63   1 H    0.995 --    61 C    0.970
    64   6 C    3.953 --    61 C    0.998    67 N    0.978    66 H    0.966
                            65 H    0.965
    65   1 H    0.992 --    64 C    0.965
    66   1 H    0.992 --    64 C    0.966
    67   7 N    3.449 --    69 C    1.301    64 C    0.978    68 H    0.918
                            70 N    0.100
    68   1 H    0.947 --    67 N    0.918
    69   6 C    3.974 --    70 N    1.337    73 N    1.305    67 N    1.301
    70   7 N    3.393 --    69 C    1.337    71 H    0.918    72 H    0.851
                            73 N    0.104    67 N    0.100
    71   1 H    0.942 --    70 N    0.918
    72   1 H    0.934 --    70 N    0.851
    73   7 N    3.391 --    69 C    1.305    74 H    0.923    75 H    0.920
                            70 N    0.104
    74   1 H    0.944 --    73 N    0.923
    75   1 H    0.946 --    73 N    0.920
    76   6 C    3.872 --    77 O    1.863    56 C    0.977   229 H    0.938
    77   8 O    2.017 --    76 C    1.863
    78   7 N    3.040 --    80 C    1.012    79 H    0.956   230 H    0.944
    79   1 H    0.970 --    78 N    0.956
    80   6 C    3.984 --    78 N    1.012    81 H    0.968    96 C    0.964
                            82 C    0.950
    81   1 H    0.997 --    80 C    0.968
    82   6 C    3.989 --    85 C    1.009    83 H    0.968    84 H    0.960
                            80 C    0.950
    83   1 H    0.996 --    82 C    0.968
    84   1 H    0.994 --    82 C    0.960
    85   6 C    3.987 --    94 C    1.412    86 C    1.399    82 C    1.009
                            90 C    0.108
    86   6 C    3.989 --    88 C    1.450    85 C    1.399    87 H    0.970
                            92 C    0.112
    87   1 H    0.999 --    86 C    0.970
    88   6 C    3.991 --    86 C    1.450    90 C    1.432    89 H    0.971
                            94 C    0.110
    89   1 H    0.999 --    88 C    0.971
    90   6 C    3.989 --    92 C    1.442    88 C    1.432    91 H    0.971
                            85 C    0.108
    91   1 H    0.999 --    90 C    0.971
    92   6 C    3.990 --    90 C    1.442    94 C    1.436    93 H    0.972
                            86 C    0.112
    93   1 H    0.998 --    92 C    0.972
    94   6 C    3.990 --    92 C    1.436    85 C    1.412    95 H    0.969
                            88 C    0.110
    95   1 H    0.998 --    94 C    0.969
    96   6 C    3.877 --    97 O    1.896    80 C    0.964   231 H    0.940
    97   8 O    2.042 --    96 C    1.896
    98   7 N    3.029 --   100 C    1.029    99 H    0.951   232 H    0.948
    99   1 H    0.975 --    98 N    0.951
   100   6 C    3.986 --    98 N    1.029   102 C    0.980   101 H    0.944
                           111 C    0.935
   101   1 H    0.995 --   100 C    0.944
   102   6 C    3.991 --   105 C    1.005   100 C    0.980   103 H    0.973
                           104 H    0.973
   103   1 H    0.998 --   102 C    0.973
   104   1 H    0.999 --   102 C    0.973
   105   6 C    3.994 --   102 C    1.005   107 H    0.968   106 H    0.964
                           108 C    0.939
   106   1 H    1.000 --   105 C    0.964
   107   1 H    0.999 --   105 C    0.968
   108   6 C    3.933 --   109 O    1.489   110 O    1.484   105 C    0.939
   109   8 O    1.775 --   108 C    1.489   110 O    0.213
   110   8 O    1.764 --   108 C    1.484   109 O    0.213
   111   6 C    3.940 --   112 O    1.598   113 N    1.318   100 C    0.935
   112   8 O    1.901 --   111 C    1.598   113 N    0.194
   113   7 N    3.479 --   111 C    1.318   115 C    0.981   114 H    0.903
                           112 O    0.194
   114   1 H    0.957 --   113 N    0.903
   115   6 C    3.967 --   113 N    0.981   117 C    0.951   127 C    0.951
                           116 H    0.950
   116   1 H    0.995 --   115 C    0.950
   117   6 C    3.989 --   123 C    1.010   119 C    1.005   118 H    0.963
                           115 C    0.951
   118   1 H    0.996 --   117 C    0.963
   119   6 C    3.982 --   117 C    1.005   121 H    0.982   120 H    0.981
                           122 H    0.979
   120   1 H    0.998 --   119 C    0.981
   121   1 H    1.000 --   119 C    0.982
   122   1 H    0.995 --   119 C    0.979
   123   6 C    3.994 --   117 C    1.010   126 H    0.984   124 H    0.984
                           125 H    0.984
   124   1 H    0.996 --   123 C    0.984
   125   1 H    0.999 --   123 C    0.984
   126   1 H    0.999 --   123 C    0.984
   127   6 C    3.951 --   128 O    1.617   129 N    1.308   115 C    0.951
   128   8 O    1.940 --   127 C    1.617   129 N    0.196
   129   7 N    3.478 --   127 C    1.308   131 C    0.977   130 H    0.911
                           128 O    0.196
   130   1 H    0.953 --   129 N    0.911
   131   6 C    3.961 --   146 C    0.982   129 N    0.977   133 C    0.949
                           132 H    0.939
   132   1 H    0.991 --   131 C    0.939
   133   6 C    3.981 --   135 C    1.002   139 C    0.997   134 H    0.959
                           131 C    0.949
   134   1 H    0.996 --   133 C    0.959
   135   6 C    3.986 --   133 C    1.002   137 H    0.982   138 H    0.981
                           136 H    0.976
   136   1 H    0.994 --   135 C    0.976
   137   1 H    0.998 --   135 C    0.982
   138   1 H    0.997 --   135 C    0.981
   139   6 C    3.995 --   142 C    1.014   133 C    0.997   140 H    0.974
                           141 H    0.965
   140   1 H    0.998 --   139 C    0.974
   141   1 H    0.998 --   139 C    0.965
   142   6 C    3.990 --   139 C    1.014   145 H    0.987   144 H    0.986
                           143 H    0.981
   143   1 H    0.998 --   142 C    0.981
   144   1 H    0.997 --   142 C    0.986
   145   1 H    0.998 --   142 C    0.987
   146   6 C    3.880 --   147 O    1.883   131 C    0.982   233 H    0.936
   147   8 O    2.034 --   146 C    1.883
   148   7 N    3.012 --   150 C    1.028   149 H    0.956   234 H    0.953
   149   1 H    0.973 --   148 N    0.956
   150   6 C    3.982 --   148 N    1.028   167 C    0.987   152 C    0.961
                           151 H    0.911
   151   1 H    0.992 --   150 C    0.911
   152   6 C    3.990 --   155 C    1.010   154 H    0.968   150 C    0.961
                           153 H    0.951
   153   1 H    0.994 --   152 C    0.951
   154   1 H    0.997 --   152 C    0.968
   155   6 C    3.987 --   156 C    1.409   165 C    1.399   152 C    1.010
   156   6 C    3.987 --   158 C    1.448   155 C    1.409   157 H    0.968
                           163 C    0.104
   157   1 H    0.997 --   156 C    0.968
   158   6 C    3.986 --   156 C    1.448   160 C    1.367   159 H    0.970
                           165 C    0.110
   159   1 H    0.998 --   158 C    0.970
   160   6 C    3.930 --   158 C    1.367   163 C    1.365   161 O    1.070
   161   8 O    2.076 --   160 C    1.070   162 H    0.847
   162   1 H    0.868 --   161 O    0.847
   163   6 C    3.985 --   165 C    1.455   160 C    1.365   164 H    0.966
                           156 C    0.104
   164   1 H    0.998 --   163 C    0.966
   165   6 C    3.989 --   163 C    1.455   155 C    1.399   166 H    0.965
                           158 C    0.110
   166   1 H    0.997 --   165 C    0.965
   167   6 C    3.878 --   168 O    1.866   150 C    0.987   235 H    0.936
   168   8 O    2.030 --   167 C    1.866
   169   7 N    3.019 --   171 C    1.025   236 H    0.952   170 H    0.939
   170   1 H    0.973 --   169 N    0.939
   171   6 C    3.987 --   169 N    1.025   184 C    0.990   172 H    0.962
                           173 C    0.923
   172   1 H    0.998 --   171 C    0.962
   173   6 C    3.990 --   176 C    1.017   174 H    0.963   175 H    0.959
                           171 C    0.923
   174   1 H    0.996 --   173 C    0.963
   175   1 H    0.995 --   173 C    0.959
   176   6 C    3.973 --   182 C    1.571   177 N    1.256   173 C    1.017
   177   7 N    2.993 --   178 C    1.539   176 C    1.256   180 N    0.108
   178   6 C    3.959 --   177 N    1.539   180 N    1.288   179 H    0.964
                           182 C    0.113
   179   1 H    0.998 --   178 C    0.964
   180   7 N    3.583 --   178 C    1.288   182 C    1.198   181 H    0.918
                           177 N    0.108
   181   1 H    0.946 --   180 N    0.918
   182   6 C    3.938 --   176 C    1.571   180 N    1.198   183 H    0.970
                           178 C    0.113
   183   1 H    0.998 --   182 C    0.970
   184   6 C    3.865 --   185 O    1.853   171 C    0.990   237 H    0.940
   185   8 O    2.061 --   184 C    1.853
   186   7 N    3.007 --   188 C    1.023   238 H    0.954   187 H    0.927
   187   1 H    0.970 --   186 N    0.927
   188   6 C    3.982 --   186 N    1.023   190 C    0.954   189 H    0.948
                           203 C    0.945
   189   1 H    0.996 --   188 C    0.948
   190   6 C    3.988 --   192 C    1.005   196 C    0.995   191 H    0.964
                           188 C    0.954
   191   1 H    0.997 --   190 C    0.964
   192   6 C    3.993 --   190 C    1.005   193 H    0.981   194 H    0.979
                           195 H    0.978
   193   1 H    0.998 --   192 C    0.981
   194   1 H    0.998 --   192 C    0.979
   195   1 H    0.999 --   192 C    0.978
   196   6 C    3.997 --   199 C    1.017   190 C    0.995   197 H    0.978
                           198 H    0.973
   197   1 H    1.000 --   196 C    0.978
   198   1 H    0.998 --   196 C    0.973
   199   6 C    3.995 --   196 C    1.017   200 H    0.988   201 H    0.987
                           202 H    0.983
   200   1 H    0.998 --   199 C    0.988
   201   1 H    0.998 --   199 C    0.987
   202   1 H    0.998 --   199 C    0.983
   203   6 C    3.941 --   204 O    1.615   205 N    1.304   188 C    0.945
   204   8 O    1.920 --   203 C    1.615   205 N    0.196
   205   7 N    3.478 --   203 C    1.304   207 C    0.985   206 H    0.885
                           204 O    0.196
   206   1 H    0.946 --   205 N    0.885
   207   6 C    3.966 --   205 N    0.985   222 C    0.979   208 H    0.953
Note: The following floating-point exceptions are signalling: IEEE_UNDERFLOW_FLAG IEEE_DENORMAL
normal termination of xtb
                           209 C    0.938
   208   1 H    0.993 --   207 C    0.953
   209   6 C    3.985 --   211 C    1.008   215 C    0.993   210 H    0.956
                           207 C    0.938
   210   1 H    0.995 --   209 C    0.956
   211   6 C    3.991 --   209 C    1.008   213 H    0.984   214 H    0.982
                           212 H    0.981
   212   1 H    0.998 --   211 C    0.981
   213   1 H    0.998 --   211 C    0.984
   214   1 H    0.996 --   211 C    0.982
   215   6 C    3.990 --   218 C    1.014   209 C    0.993   217 H    0.974
                           216 H    0.972
   216   1 H    0.999 --   215 C    0.972
   217   1 H    0.999 --   215 C    0.974
   218   6 C    3.991 --   215 C    1.014   221 H    0.988   220 H    0.987
                           219 H    0.983
   219   1 H    0.998 --   218 C    0.983
   220   1 H    0.999 --   218 C    0.987
   221   1 H    0.998 --   218 C    0.988
   222   6 C    3.874 --   223 O    1.881   207 C    0.979   239 H    0.938
   223   8 O    2.046 --   222 C    1.881
   224   1 H    0.963 --     1 N    0.947
   225   1 H    0.997 --    20 C    0.939
   226   1 H    0.969 --    22 N    0.955
   227   1 H    0.995 --    52 C    0.939
   228   1 H    0.969 --    54 N    0.954
   229   1 H    0.997 --    76 C    0.938
   230   1 H    0.959 --    78 N    0.944
   231   1 H    0.998 --    96 C    0.940
   232   1 H    0.966 --    98 N    0.948
   233   1 H    0.994 --   146 C    0.936
   234   1 H    0.969 --   148 N    0.953
   235   1 H    0.995 --   167 C    0.936
   236   1 H    0.968 --   169 N    0.952
   237   1 H    0.995 --   184 C    0.940
   238   1 H    0.970 --   186 N    0.954
   239   1 H    0.994 --   222 C    0.938
 ---------------------------------------------------------------------------

Topologies differ in total number of bonds
Writing topology from bond orders to xtbtopo.mol

molecular dipole:
                 x           y           z       tot (Debye)
 q only:      -68.301     -71.807     -86.853
   full:      -67.412     -71.074     -87.241     333.415
molecular quadrupole (traceless):
                xx          xy          yy          xz          yz          zz
 q only:     1829.273   -7238.691     773.387   -8896.226   -9622.323   -2602.660
  q+dip:     1952.482   -7077.133     814.629   -8813.646   -9569.686   -2767.111
   full:     1957.240   -7075.354     816.608   -8815.426   -9570.161   -2773.848


           -------------------------------------------------
          | TOTAL ENERGY             -357.457344593508 Eh   |
          | GRADIENT NORM               0.306189130197 Eh/α |
          | HOMO-LUMO GAP               1.202060252801 eV   |
           -------------------------------------------------

------------------------------------------------------------------------
 * finished run on 2026/01/05 at 09:08:01.770     
------------------------------------------------------------------------
 total:
 * wall-time:     0 d,  0 h,  0 min,  1.442 sec
 *  cpu-time:     0 d,  0 h,  0 min, 20.531 sec
 * ratio c/w:    14.236 speedup
 SCF:
 * wall-time:     0 d,  0 h,  0 min,  1.343 sec
 *  cpu-time:     0 d,  0 h,  0 min, 19.064 sec
 * ratio c/w:    14.191 speedup

