      -----------------------------------------------------------      
     |                   =====================                   |     
     |                           x T B                           |     
     |                   =====================                   |     
     |                         S. Grimme                         |     
     |          Mulliken Center for Theoretical Chemistry        |     
     |                    University of Bonn                     |     
      -----------------------------------------------------------      

   * xtb version 6.7.1 (edcfbbe) compiled by 'conda@c0858423619e' on 2025-09-04

   xtb is free software: you can redistribute it and/or modify it under
   the terms of the GNU Lesser General Public License as published by
   the Free Software Foundation, either version 3 of the License, or
   (at your option) any later version.
   
   xtb is distributed in the hope that it will be useful,
   but WITHOUT ANY WARRANTY; without even the implied warranty of
   MERCHANTABILITY or FITNESS FOR A PARTICULAR PURPOSE.  See the
   GNU Lesser General Public License for more details.
   
   Cite this work as:
   * C. Bannwarth, E. Caldeweyher, S. Ehlert, A. Hansen, P. Pracht,
     J. Seibert, S. Spicher, S. Grimme, WIREs Comput. Mol. Sci., 2020, 11,
     e01493. DOI: 10.1002/wcms.1493
   
   for GFN2-xTB:
   * C. Bannwarth, S. Ehlert and S. Grimme., J. Chem. Theory Comput., 2019,
     15, 1652-1671. DOI: 10.1021/acs.jctc.8b01176
   for GFN1-xTB:
   * S. Grimme, C. Bannwarth, P. Shushkov, J. Chem. Theory Comput., 2017,
     13, 1989-2009. DOI: 10.1021/acs.jctc.7b00118
   for GFN0-xTB:
   * P. Pracht, E. Caldeweyher, S. Ehlert, S. Grimme, ChemRxiv, 2019, preprint.
     DOI: 10.26434/chemrxiv.8326202.v1
   for GFN-FF:
   * S. Spicher and S. Grimme, Angew. Chem. Int. Ed., 2020, 59, 15665-15673.
     DOI: 10.1002/anie.202004239
   
   for ALPB and GBSA implicit solvation:
   * S. Ehlert, M. Stahn, S. Spicher, S. Grimme, J. Chem. Theory Comput.,
     2021, 17, 4250-4261. DOI: 10.1021/acs.jctc.1c00471
   
   for ddCOSMO and CPCM-X implicit solvation:
   * M. Stahn, S. Ehlert, S. Grimme, J. Phys. Chem. A,
     2023, XX, XXXX-XXXX. DOI: 10.1021/acs.jpca.3c04382
   
   for DFT-D4:
   * E. Caldeweyher, C. Bannwarth and S. Grimme, J. Chem. Phys., 2017,
     147, 034112. DOI: 10.1063/1.4993215
   * E. Caldeweyher, S. Ehlert, A. Hansen, H. Neugebauer, S. Spicher,
     C. Bannwarth and S. Grimme, J. Chem. Phys., 2019, 150, 154122.
     DOI: 10.1063/1.5090222
   * E. Caldeweyher, J.-M. Mewes, S. Ehlert and S. Grimme, Phys. Chem. Chem. Phys.
     2020, 22, 8499-8512. DOI: 10.1039/D0CP00502A
   
   for sTDA-xTB:
   * S. Grimme and C. Bannwarth, J. Chem. Phys., 2016, 145, 054103.
     DOI: 10.1063/1.4959605
   
   in the mass-spec context:
   * V. Asgeirsson, C. Bauer and S. Grimme, Chem. Sci., 2017, 8, 4879.
     DOI: 10.1039/c7sc00601b
   * J. Koopman and S. Grimme, ACS Omega 2019, 4, 12, 15120-15133.
     DOI: 10.1021/acsomega.9b02011
   
   for metadynamics refer to:
   * S. Grimme, J. Chem. Theory Comput., 2019, 155, 2847-2862
     DOI: 10.1021/acs.jctc.9b00143
   
   for SPH calculations refer to:
   * S. Spicher and S. Grimme, J. Chem. Theory Comput., 2021, 17, 1701-1714
     DOI: 10.1021/acs.jctc.0c01306
   
   for ONIOM refer to:
   * C. Plett, A. Katbashev, S. Ehlert, S. Grimme, M. Bursch,
     Phys. Chem. Chem. Phys., 2023, 25, 17860-17868. DOI: 10.1039/D3CP02178E
   
   for DIPRO refer to:
   * J. Kohn, N. Gildemeister, S. Grimme, D. Fazzi, A. Hansen,
     J. Chem. Phys., 2023, just accepted.
   
   for PTB refer to:
   * S. Grimme, M. Mueller, A. Hansen, J. Chem. Phys., 2023, 158, 124111.
     DOI: 10.1063/5.0137838
   
   with help from (in alphabetical order)
   P. Atkinson, C. Bannwarth, F. Bohle, G. Brandenburg, E. Caldeweyher
   M. Checinski, S. Dohm, S. Ehlert, S. Ehrlich, I. Gerasimov, C. Hölzer
   A. Katbashev, J. Kohn, J. Koopman, C. Lavigne, S. Lehtola, F. März, M. Müller,
   F. Musil, H. Neugebauer, J. Pisarek, C. Plett, P. Pracht, F. Pultar,
   J. Seibert, P. Shushkov, S. Spicher, M. Stahn, M. Steiner, T. Strunk,
   J. Stückrath, T. Rose, and J. Unsleber
   
 * started run on 2026/01/05 at 09:06:33.142     
   ID    Z sym.   atoms
    1    6 C      1, 3-11, 14-16, 18, 20, 21, 24-29, 32, 62, 64, 67, 70, 75,
                  79, 81, 84, 87, 90, 94, 96, 98, 102, 106, 110, 112, 114,
                  118, 121, 125, 129, 131, 134, 137, 142, 149, 153, 155, 159,
                  163, 165, 168, 169, 171, 173, 176, 178, 180, 184, 186, 189,
                  191, 195, 197, 201, 203, 205, 209, 212, 216
    2    7 N      2, 22, 60, 72, 77, 92, 108, 127, 140, 143, 146, 151, 161,
                  182, 190, 193, 199
    3    8 O      12, 13, 17, 30, 31, 71, 76, 88, 89, 91, 107, 126, 150, 160,
                  174, 181, 198, 217
    4   16 S      19, 23
    5    1 H      33-59, 61, 63, 65, 66, 68, 69, 73, 74, 78, 80, 82, 83, 85,
                  86, 93, 95, 97, 99-101, 103-105, 109, 111, 113, 115-117,
                  119, 120, 122-124, 128, 130, 132, 133, 135, 136, 138, 139,
                  141, 144, 145, 147, 148, 152, 154, 156-158, 162, 164, 166,
                  167, 170, 172, 175, 177, 179, 183, 185, 187, 188, 192, 194,
                  196, 200, 202, 204, 206-208, 210, 211, 213-215, 218-225

           -------------------------------------------------
          |                Calculation Setup                |
           -------------------------------------------------

          program call               : xtb /home/antonio_mesquita/Documentos/gmx_ISA_project/testes_arquivos_primeiros/gmx_ISA_testes/testes_qm_xtb/QM_analysis/QM_FRAMES_CAPPED/frame_1800ps/complex_capped_1800ps.xyz --gfn 2 --alpb water --chrg 1 --etemp 1500 --cycles 1000
          coordinate file            : /home/antonio_mesquita/Documentos/gmx_ISA_project/testes_arquivos_primeiros/gmx_ISA_testes/testes_qm_xtb/QM_analysis/QM_FRAMES_CAPPED/frame_1800ps/complex_capped_1800ps.xyz
          omp threads                :                    16


molecular fragmentation (1/2 indicates fragments):
111111111111111111111111111111111111111111111111111111111112222222222222
222222222222222222222222222222222222222222222222222222222222222222222222
222222222222222222222222222222222222222222222222222222222222222222222222
222222222
# atoms in fragment 1/2:    59   166
 fragment masses (1/2) :      475.60     1118.33
CMA distance (Bohr)    :  11.195
constraining FC (au)   :  0.0500

           -------------------------------------------------
          |                 G F N 2 - x T B                 |
           -------------------------------------------------

        Reference                      10.1021/acs.jctc.8b01176
      * Hamiltonian:
        H0-scaling (s, p, d)           1.850000    2.230000    2.230000
        zeta-weighting                 0.500000
      * Dispersion:
        s8                             2.700000
        a1                             0.520000
        a2                             5.000000
        s9                             5.000000
      * Repulsion:
        kExp                           1.500000    1.000000
        rExp                           1.000000
      * Coulomb:
        alpha                          2.000000
        third order                    shell-resolved
        anisotropic                    true
        a3                             3.000000
        a5                             4.000000
        cn-shift                       1.200000
        cn-exp                         4.000000
        max-rad                        5.000000

      * Solvation model:               ALPB
        Solvent                        water
        Parameter file                 internal GFN2-xTB/ALPB
        Dielectric constant                8.0200E+01
        Reference state                gsolv [1 M gas/solution]
        Free energy shift                  1.0808E-03 Eh       6.7819E-01 kcal/mol
        Temperature                        2.9815E+02 K
        Density                            1.0000E+00 kg/L
        Solvent mass                       1.8000E+01 g/mol
        Interaction kernel             P16
        Born radius scaling (c1)           1.4744E+00
        Born radii integrator          GBOBC
        Born offset                        0.0000E+00 a0       0.0000E+00 AA
        H-bond correction              true
        Ion screening                  false
        Surface tension                    1.0000E-05 Eh       1.5569E+01 dyn/cm
        Grid points                               230 per atom

          ...................................................
          :                      SETUP                      :
          :.................................................:
          :  # basis functions                 570          :
          :  # atomic orbitals                 568          :
          :  # shells                          338          :
          :  # electrons                       614          :
          :  max. iterations                   250          :
          :  Hamiltonian                  GFN2-xTB          :
          :  restarted?                      false          :
          :  GBSA solvation                   true          :
          :  PC potential                    false          :
          :  electronic temp.         1500.0000000     K    :
          :  accuracy                    1.0000000          :
          :  -> integral cutoff          0.2500000E+02      :
          :  -> integral neglect         0.1000000E-07      :
          :  -> SCF convergence          0.1000000E-05 Eh   :
          :  -> wf. convergence          0.1000000E-03 e    :
          :  Broyden damping             0.4000000          :
          :  net charge                          1          :
          :  unpaired electrons                  0          :
          ...................................................

 iter      E             dE          RMSdq      gap      omega  full diag
   1   -348.8410737 -0.348841E+03  0.448E+00    0.06       0.0  T
   2   -349.4909883 -0.649915E+00  0.255E+00    1.30       1.0  T
   3   -349.2849793  0.206009E+00  0.179E+00    0.12       1.0  T
   4   -349.5818710 -0.296892E+00  0.978E-01    0.60       1.0  T
   5   -349.6246742 -0.428031E-01  0.684E-01    0.02       1.0  T
   6   -349.7150961 -0.904219E-01  0.347E-01    0.34       1.0  T
   7   -349.6596789  0.554172E-01  0.533E-01    0.02       1.0  T
   8   -349.6959232 -0.362443E-01  0.358E-01    0.08       1.0  T
   9   -349.7254667 -0.295435E-01  0.131E-01    0.25       1.0  T
  10   -349.7259692 -0.502532E-03  0.120E-01    0.36       1.0  T
  11   -349.7289522 -0.298298E-02  0.366E-02    0.32       1.0  T
  12   -349.7289387  0.134878E-04  0.334E-02    0.32       1.0  T
  13   -349.7291202 -0.181489E-03  0.147E-02    0.32       1.0  T
  14   -349.7290923  0.278761E-04  0.167E-02    0.30       1.0  T
  15   -349.7291446 -0.522192E-04  0.777E-03    0.32       1.0  T
  16   -349.7291555 -0.109159E-04  0.315E-03    0.31       2.1  T
  17   -349.7291572 -0.169884E-05  0.134E-03    0.31       5.0  T
  18   -349.7291574 -0.234194E-06  0.672E-04    0.31       9.9  T
  19   -349.7291575 -0.717765E-07  0.293E-04    0.31      22.7  T

   *** convergence criteria satisfied after 19 iterations ***

         #    Occupation            Energy/Eh            Energy/eV
      -------------------------------------------------------------
         1        2.0000           -0.7897621             -21.4905
       ...           ...                  ...                  ...
       301        1.9797           -0.3785087             -10.2997
       302        1.9346           -0.3728390             -10.1455
       303        1.9165           -0.3716333             -10.1127
       304        1.8881           -0.3701749             -10.0730
       305        1.8231           -0.3678325             -10.0092
       306        1.8105           -0.3674726              -9.9994
       307        1.7965           -0.3670965              -9.9892 (HOMO)
       308        0.8800           -0.3556048              -9.6765 (LUMO)
       309        0.0000           -0.2938165              -7.9952
       310        0.0000           -0.2894717              -7.8769
       311        0.0000           -0.2885993              -7.8532
       312        0.0000           -0.2857374              -7.7753
       ...           ...                  ...                  ...
       568                          1.0637170              28.9452
      -------------------------------------------------------------
                  HL-Gap            0.0114917 Eh            0.3127 eV
             Fermi-level           -0.3567503 Eh           -9.7077 eV

 SCC (total)                   0 d,  0 h,  0 min,  3.316 sec
 SCC setup                      ...        0 min,  0.010 sec (  0.310%)
 Dispersion                     ...        0 min,  0.019 sec (  0.586%)
 classical contributions        ...        0 min,  0.003 sec (  0.092%)
 integral evaluation            ...        0 min,  0.066 sec (  1.991%)
 iterations                     ...        0 min,  3.022 sec ( 91.139%)
 molecular gradient             ...        0 min,  0.190 sec (  5.730%)
 printout                       ...        0 min,  0.005 sec (  0.152%)

         :::::::::::::::::::::::::::::::::::::::::::::::::::::
         ::                     SUMMARY                     ::
         :::::::::::::::::::::::::::::::::::::::::::::::::::::
         :: total energy            -345.550207921812 Eh    ::
         :: total w/o Gsasa/hb      -345.511259387070 Eh    ::
         :: gradient norm              0.283137791419 Eh/a0 ::
         :: HOMO-LUMO gap              0.312704538241 eV    ::
         ::.................................................::
         :: SCC energy              -349.715708327131 Eh    ::
         :: -> isotropic ES            1.051032294261 Eh    ::
         :: -> anisotropic ES         -0.019000434235 Eh    ::
         :: -> anisotropic XC          0.139145829875 Eh    ::
         :: -> dispersion             -0.257119408630 Eh    ::
         :: -> Gsolv                  -0.372486129741 Eh    ::
         ::    -> Gelec               -0.333537594998 Eh    ::
         ::    -> Gsasa                0.009027033631 Eh    ::
         ::    -> Ghb                 -0.049056328071 Eh    ::
         ::    -> Gshift               0.001080759698 Eh    ::
         :: repulsion energy           4.165500405319 Eh    ::
         :: add. restraining           0.000000000000 Eh    ::
         :: total charge               1.000000000093 e     ::
         :::::::::::::::::::::::::::::::::::::::::::::::::::::

           -------------------------------------------------
          |                Property Printout                |
           -------------------------------------------------

    * Orbital Energies and Occupations

         #    Occupation            Energy/Eh            Energy/eV
      -------------------------------------------------------------
         1        2.0000           -0.7897621             -21.4905
       ...           ...                  ...                  ...
       295        1.9998           -0.3996707             -10.8756
       296        1.9994           -0.3951005             -10.7512
       297        1.9992           -0.3939799             -10.7207
       298        1.9990           -0.3930400             -10.6952
       299        1.9937           -0.3840941             -10.4517
       300        1.9808           -0.3787823             -10.3072
       301        1.9797           -0.3785087             -10.2997
       302        1.9346           -0.3728390             -10.1455
       303        1.9165           -0.3716333             -10.1127
       304        1.8881           -0.3701749             -10.0730
       305        1.8231           -0.3678325             -10.0092
       306        1.8105           -0.3674726              -9.9994
       307        1.7965           -0.3670965              -9.9892 (HOMO)
       308        0.8800           -0.3556048              -9.6765 (LUMO)
       309        0.0000           -0.2938165              -7.9952
       310        0.0000           -0.2894717              -7.8769
       311        0.0000           -0.2885993              -7.8532
       312        0.0000           -0.2857374              -7.7753
       313                         -0.2654061              -7.2221
       314                         -0.2566270              -6.9832
       315                         -0.2507248              -6.8226
       316                         -0.2341796              -6.3724
       317                         -0.2310607              -6.2875
       318                         -0.2296884              -6.2501
       ...                                ...                  ...
       568                          1.0637170              28.9452
      -------------------------------------------------------------
                  HL-Gap            0.0114917 Eh            0.3127 eV
             Fermi-level           -0.3567503 Eh           -9.7077 eV

     #   Z          covCN         q      C6AA      α(0)
     1   6 C        2.743     0.273    22.381     7.746
     2   7 N        2.690    -0.116    23.523     7.203
     3   6 C        2.867     0.039    27.128     8.538
     4   6 C        3.683     0.086    19.351     6.299
     5   6 C        3.806    -0.072    21.863     6.656
     6   6 C        2.964     0.022    27.503     8.602
     7   6 C        2.917    -0.041    29.030     8.835
     8   6 C        2.909    -0.038    28.950     8.823
     9   6 C        2.908    -0.036    28.891     8.814
    10   6 C        2.918    -0.025    28.635     8.775
    11   6 C        2.909    -0.033    28.820     8.803
    12   8 O        1.703    -0.273    18.536     5.813
    13   8 O        0.857    -0.482    23.395     6.485
    14   6 C        2.704     0.338    21.260     7.547
    15   6 C        3.745    -0.124    22.958     6.835
    16   6 C        3.847     0.009    20.399     6.424
    17   8 O        0.857    -0.439    22.473     6.356
    18   6 C        3.788    -0.034    21.198     6.557
    19  16 S        1.968    -0.171   148.277    20.495
    20   6 C        3.795    -0.043    21.352     6.580
    21   6 C        3.842     0.025    20.128     6.382
    22   7 N        2.733    -0.281    27.235     7.751
    23  16 S        3.796     1.144   102.624    17.050
    24   6 C        2.955    -0.085    30.128     9.003
    25   6 C        2.941    -0.031    28.777     8.798
    26   6 C        2.921    -0.038    28.955     8.824
    27   6 C        2.953     0.038    27.154     8.547
    28   6 C        2.918    -0.037    28.911     8.817
    29   6 C        2.936    -0.027    28.681     8.783
    30   8 O        0.859    -0.668    27.850     7.076
    31   8 O        0.860    -0.627    26.783     6.939
    32   6 C        3.751    -0.139    23.243     6.875
    33   1 H        0.861     0.248     0.890     1.477
    34   1 H        0.924     0.049     2.330     2.387
    35   1 H        0.923     0.054     2.269     2.355
    36   1 H        0.924     0.081     1.973     2.197
    37   1 H        0.923     0.095     1.828     2.114
    38   1 H        0.925     0.047     2.354     2.399
    39   1 H        0.925     0.063     2.159     2.298
    40   1 H        0.925     0.051     2.307     2.375
    41   1 H        0.924     0.030     2.585     2.514
    42   1 H        0.925     0.035     2.514     2.479
    43   1 H        0.924     0.081     1.973     2.196
    44   1 H        0.923     0.064     2.158     2.298
    45   1 H        0.923     0.055     2.253     2.348
    46   1 H        0.924     0.041     2.433     2.439
    47   1 H        0.923     0.071     2.074     2.252
    48   1 H        0.922     0.094     1.840     2.121
    49   1 H        0.924     0.088     1.900     2.156
    50   1 H        0.924     0.107     1.721     2.052
    51   1 H        0.925     0.095     1.830     2.116
    52   1 H        0.924     0.105     1.741     2.064
    53   1 H        0.925     0.077     2.006     2.215
    54   1 H        0.925     0.087     1.907     2.159
    55   1 H        0.925     0.078     2.000     2.212
    56   1 H        0.924     0.048     2.346     2.395
    57   1 H        0.924     0.063     2.161     2.299
    58   1 H        0.924     0.093     1.852     2.128
    59   1 H        0.924     0.071     2.078     2.255
    60   7 N        2.633    -0.346    28.911     7.986
    61   1 H        0.860     0.176     1.235     1.741
    62   6 C        3.788     0.033    20.035     6.375
    63   1 H        0.925     0.069     2.092     2.262
    64   6 C        3.807    -0.060    21.655     6.624
    65   1 H        0.924     0.071     2.077     2.254
    66   1 H        0.925     0.062     2.170     2.304
    67   6 C        3.804    -0.105    22.500     6.753
    68   1 H        0.925     0.096     1.825     2.113
    69   1 H        0.925     0.072     2.067     2.248
    70   6 C        2.744     0.288    22.109     7.699
    71   8 O        0.862    -0.526    24.365     6.618
    72   7 N        2.641    -0.300    27.717     7.819
    73   1 H        0.860     0.235     0.942     1.520
    74   1 H        0.860     0.244     0.908     1.493
    75   6 C        2.754     0.263    22.574     7.780
    76   8 O        0.861    -0.509    23.981     6.566
    77   7 N        2.694    -0.179    24.873     7.407
    78   1 H        0.861     0.209     1.062     1.614
    79   6 C        3.798     0.030    20.075     6.380
    80   1 H        0.924     0.072     2.060     2.244
    81   6 C        3.807    -0.049    21.456     6.594
    82   1 H        0.924     0.047     2.355     2.400
    83   1 H        0.924     0.050     2.320     2.382
    84   6 C        3.801    -0.090    22.210     6.710
    85   1 H        0.925     0.050     2.326     2.385
    86   1 H        0.924     0.039     2.457     2.452
    87   6 C        2.687     0.370    20.731     7.451
    88   8 O        0.856    -0.638    27.066     6.975
    89   8 O        0.857    -0.634    26.972     6.963
    90   6 C        2.745     0.283    22.201     7.715
    91   8 O        0.859    -0.509    23.978     6.565
    92   7 N        2.687    -0.154    24.339     7.327
    93   1 H        0.860     0.205     1.079     1.627
    94   6 C        3.794     0.018    20.282     6.413
    95   1 H        0.925     0.071     2.075     2.253
    96   6 C        3.864    -0.019    20.870     6.497
    97   1 H        0.924     0.056     2.242     2.342
    98   6 C        3.752    -0.116    22.780     6.806
    99   1 H        0.924     0.055     2.260     2.351
   100   1 H        0.924     0.048     2.351     2.398
   101   1 H        0.924     0.031     2.566     2.505
   102   6 C        3.754    -0.116    22.768     6.804
   103   1 H        0.924     0.037     2.490     2.468
   104   1 H        0.924     0.041     2.429     2.437
   105   1 H        0.925     0.052     2.294     2.368
   106   6 C        2.766     0.273    22.380     7.748
   107   8 O        0.859    -0.496    23.691     6.526
   108   7 N        2.691    -0.155    24.357     7.330
   109   1 H        0.860     0.213     1.041     1.598
   110   6 C        3.801     0.026    20.137     6.389
   111   1 H        0.924     0.076     2.020     2.222
   112   6 C        3.861    -0.021    20.914     6.504
   113   1 H        0.924     0.054     2.272     2.357
   114   6 C        3.753    -0.120    22.850     6.817
   115   1 H        0.925     0.054     2.274     2.358
   116   1 H        0.925     0.060     2.201     2.320
   117   1 H        0.924     0.028     2.608     2.526
   118   6 C        3.802    -0.068    21.797     6.647
   119   1 H        0.925     0.048     2.345     2.395
   120   1 H        0.924     0.047     2.357     2.401
   121   6 C        3.749    -0.120    22.862     6.820
   122   1 H        0.924     0.028     2.622     2.532
   123   1 H        0.925     0.048     2.345     2.395
   124   1 H        0.924     0.051     2.308     2.376
   125   6 C        2.756     0.275    22.344     7.741
   126   8 O        0.859    -0.507    23.935     6.559
   127   7 N        2.697    -0.171    24.700     7.381
   128   1 H        0.860     0.231     0.960     1.535
   129   6 C        3.790     0.033    20.037     6.375
   130   1 H        0.924     0.093     1.847     2.125
   131   6 C        3.814    -0.079    22.005     6.677
   132   1 H        0.925     0.079     1.990     2.206
   133   1 H        0.924     0.075     2.032     2.229
   134   6 C        3.807    -0.081    22.047     6.684
   135   1 H        0.925     0.071     2.078     2.254
   136   1 H        0.925     0.075     2.030     2.228
   137   6 C        3.733    -0.025    21.113     6.558
   138   1 H        0.925     0.104     1.750     2.069
   139   1 H        0.924     0.092     1.861     2.133
   140   7 N        2.695    -0.146    24.152     7.299
   141   1 H        0.861     0.228     0.972     1.544
   142   6 C        2.733     0.237    23.031     7.857
   143   7 N        2.653    -0.264    26.854     7.696
   144   1 H        0.860     0.250     0.883     1.472
   145   1 H        0.860     0.260     0.846     1.441
   146   7 N        2.657    -0.278    27.177     7.743
   147   1 H        0.860     0.254     0.868     1.460
   148   1 H        0.860     0.265     0.828     1.425
   149   6 C        2.758     0.215    23.448     7.930
   150   8 O        0.856    -0.389    21.454     6.210
   151   7 N        2.636    -0.324    28.342     7.907
   152   1 H        0.860     0.198     1.116     1.655
   153   6 C        3.785     0.029    20.110     6.388
   154   1 H        0.925     0.076     2.023     2.224
   155   6 C        3.756    -0.141    23.277     6.879
   156   1 H        0.925     0.065     2.136     2.286
   157   1 H        0.925     0.060     2.200     2.319
   158   1 H        0.925     0.055     2.258     2.350
   159   6 C        2.750     0.268    22.471     7.762
   160   8 O        0.862    -0.505    23.900     6.555
   161   7 N        2.689    -0.166    24.582     7.364
   162   1 H        0.860     0.219     1.014     1.577
   163   6 C        3.789     0.029    20.103     6.386
   164   1 H        0.925     0.117     1.635     2.000
   165   6 C        3.814    -0.075    21.915     6.663
   166   1 H        0.925     0.074     2.040     2.234
   167   1 H        0.925     0.069     2.101     2.267
   168   6 C        2.972     0.007    27.871     8.660
   169   6 C        2.911    -0.038    28.946     8.822
   170   1 H        0.925     0.049     2.335     2.390
   171   6 C        2.914    -0.057    29.416     8.894
   172   1 H        0.926     0.031     2.577     2.510
   173   6 C        2.840     0.137    24.996     8.193
   174   8 O        1.661    -0.456    21.969     6.327
   175   1 H        0.806     0.374     0.535     1.149
   176   6 C        2.907    -0.075    29.877     8.963
   177   1 H        0.925     0.057     2.229     2.335
   178   6 C        2.912    -0.049    29.208     8.862
   179   1 H        0.926     0.064     2.152     2.294
   180   6 C        2.757     0.205    23.637     7.961
   181   8 O        0.856    -0.385    21.378     6.199
   182   7 N        2.631    -0.314    28.079     7.870
   183   1 H        0.860     0.197     1.123     1.660
   184   6 C        3.786     0.042    19.892     6.353
   185   1 H        0.924     0.075     2.036     2.231
   186   6 C        3.808    -0.074    21.916     6.664
   187   1 H        0.924     0.065     2.142     2.289
   188   1 H        0.925     0.077     2.013     2.219
   189   6 C        3.073     0.045    26.908     8.505
   190   7 N        1.921    -0.314    28.987     7.983
   191   6 C        3.030     0.081    26.160     8.390
   192   1 H        0.926     0.051     2.311     2.377
   193   7 N        2.789    -0.095    23.100     7.138
   194   1 H        0.860     0.227     0.980     1.551
   195   6 C        3.019    -0.035    28.857     8.812
   196   1 H        0.925     0.063     2.162     2.299
   197   6 C        2.757     0.206    23.625     7.959
   198   8 O        0.857    -0.350    20.709     6.101
   199   7 N        2.634    -0.317    28.159     7.881
   200   1 H        0.860     0.190     1.161     1.688
   201   6 C        3.790     0.031    20.068     6.380
   202   1 H        0.924     0.074     2.041     2.234
   203   6 C        3.854    -0.019    20.872     6.498
   204   1 H        0.925     0.065     2.139     2.287
   205   6 C        3.760    -0.118    22.807     6.808
   206   1 H        0.925     0.058     2.217     2.328
   207   1 H        0.925     0.046     2.366     2.405
   208   1 H        0.924     0.042     2.429     2.437
   209   6 C        3.811    -0.065    21.742     6.637
   210   1 H        0.924     0.035     2.516     2.480
   211   1 H        0.925     0.035     2.512     2.478
   212   6 C        3.749    -0.122    22.901     6.825
   213   1 H        0.923     0.036     2.509     2.477
   214   1 H        0.925     0.050     2.324     2.384
   215   1 H        0.924     0.055     2.254     2.348
   216   6 C        2.759     0.213    23.490     7.937
   217   8 O        0.856    -0.382    21.323     6.191
   218   1 H        0.860     0.180     1.215     1.727
   219   1 H        0.923     0.073     2.058     2.244
   220   1 H        0.860     0.204     1.085     1.632
   221   1 H        0.923     0.084     1.941     2.179
   222   1 H        0.860     0.204     1.087     1.633
   223   1 H        0.923     0.074     2.041     2.234
   224   1 H        0.860     0.214     1.040     1.597
   225   1 H        0.923     0.069     2.101     2.267

 Mol. C6AA /au·bohr⁶  :     505456.856874
 Mol. C8AA /au·bohr⁸  :   11738839.598386
 Mol. α(0) /au        :       1080.398616


Wiberg/Mayer (AO) data.
largest (>0.10) Wiberg bond orders for each atom

 ---------------------------------------------------------------------------
     #   Z sym  total        # sym  WBO       # sym  WBO       # sym  WBO
 ---------------------------------------------------------------------------
     1   6 C    3.875 --    17 O    1.687     2 N    1.164    21 C    0.939
     2   7 N    3.494 --     3 C    1.221     1 C    1.164    33 H    0.869
                            17 O    0.131
     3   6 C    3.509 --     2 N    1.221    14 C    1.067     5 C    1.040
     4   6 C    3.914 --    15 C    1.013    34 H    0.967    35 H    0.963
                            12 O    0.935
     5   6 C    3.964 --     3 C    1.040     6 C    0.953    36 H    0.951
                            37 H    0.944
     6   6 C    3.944 --    11 C    1.417     7 C    1.412     5 C    0.953
                             9 C    0.108
     7   6 C    3.985 --     8 C    1.440     6 C    1.412    38 H    0.968
                            10 C    0.111
     8   6 C    3.983 --     7 C    1.440     9 C    1.432    39 H    0.965
                            11 C    0.113
     9   6 C    3.984 --    10 C    1.442     8 C    1.432    40 H    0.959
                             6 C    0.108
    10   6 C    3.987 --     9 C    1.442    11 C    1.434    41 H    0.967
                             7 C    0.111
    11   6 C    3.986 --    10 C    1.434     6 C    1.417    42 H    0.968
                             8 C    0.113
    12   8 O    2.257 --    14 C    1.110     4 C    0.935    13 O    0.155
    13   8 O    1.888 --    14 C    1.614    12 O    0.155
    14   6 C    3.866 --    13 O    1.614    12 O    1.110     3 C    1.067
    15   6 C    3.981 --     4 C    1.013    45 H    0.987    44 H    0.981
                            43 H    0.979
    16   6 C    3.967 --    18 C    1.005    22 N    0.986    46 H    0.970
                            47 H    0.959
    17   8 O    1.939 --     1 C    1.687     2 N    0.131
    18   6 C    3.968 --    16 C    1.005    19 S    0.987    49 H    0.967
                            48 H    0.967
    19  16 S    2.117 --    20 C    0.994    18 C    0.987
    20   6 C    3.966 --    19 S    0.994    21 C    0.989    51 H    0.963
                            50 H    0.962
    21   6 C    3.961 --    20 C    0.989    22 N    0.978     1 C    0.939
                            52 H    0.922
    22   7 N    3.184 --    16 C    0.986    21 C    0.978    23 S    0.893
    23  16 S    4.823 --    31 O    1.573    30 O    1.535    22 N    0.893
                            24 C    0.726
    24   6 C    3.939 --    29 C    1.417    25 C    1.398    23 S    0.726
                            27 C    0.101
    25   6 C    3.982 --    26 C    1.456    24 C    1.398    53 H    0.963
                            28 C    0.105
    26   6 C    3.983 --    25 C    1.456    27 C    1.388    54 H    0.957
                            29 C    0.106
    27   6 C    3.977 --    28 C    1.411    26 C    1.388    32 C    1.029
                            24 C    0.101
    28   6 C    3.979 --    29 C    1.432    27 C    1.411    55 H    0.962
                            25 C    0.105
    29   6 C    3.981 --    28 C    1.432    24 C    1.417    56 H    0.964
                            26 C    0.106
    30   8 O    1.830 --    23 S    1.535    31 O    0.101
    31   8 O    1.862 --    23 S    1.573    30 O    0.101
    32   6 C    3.980 --    27 C    1.029    59 H    0.976    57 H    0.973
                            58 H    0.957
    33   1 H    0.938 --     2 N    0.869
    34   1 H    0.994 --     4 C    0.967
    35   1 H    0.993 --     4 C    0.963
    36   1 H    0.986 --     5 C    0.951
    37   1 H    0.979 --     5 C    0.944
    38   1 H    0.997 --     7 C    0.968
    39   1 H    0.995 --     8 C    0.965
    40   1 H    0.996 --     9 C    0.959
    41   1 H    0.998 --    10 C    0.967
    42   1 H    0.998 --    11 C    0.968
    43   1 H    0.993 --    15 C    0.979
    44   1 H    0.995 --    15 C    0.981
    45   1 H    0.997 --    15 C    0.987
    46   1 H    0.998 --    16 C    0.970
    47   1 H    0.995 --    16 C    0.959
    48   1 H    0.988 --    18 C    0.967
    49   1 H    0.992 --    18 C    0.967
    50   1 H    0.985 --    20 C    0.962
    51   1 H    0.990 --    20 C    0.963
    52   1 H    0.986 --    21 C    0.922
    53   1 H    0.994 --    25 C    0.963
    54   1 H    0.992 --    26 C    0.957
    55   1 H    0.993 --    28 C    0.962
    56   1 H    0.997 --    29 C    0.964
    57   1 H    0.995 --    32 C    0.973
    58   1 H    0.991 --    32 C    0.957
    59   1 H    0.995 --    32 C    0.976
    60   7 N    2.990 --    62 C    1.009    61 H    0.961   218 H    0.950
    61   1 H    0.969 --    60 N    0.961
    62   6 C    3.967 --    60 N    1.009    64 C    0.983    75 C    0.941
                            63 H    0.936
    63   1 H    0.995 --    62 C    0.936
    64   6 C    3.977 --    67 C    1.002    62 C    0.983    66 H    0.971
                            65 H    0.971
    65   1 H    0.994 --    64 C    0.971
    66   1 H    0.995 --    64 C    0.971
    67   6 C    3.987 --    64 C    1.002    70 C    0.977    69 H    0.965
                            68 H    0.943
    68   1 H    0.990 --    67 C    0.943
    69   1 H    0.995 --    67 C    0.965
    70   6 C    3.941 --    71 O    1.621    72 N    1.316    67 C    0.977
    71   8 O    1.918 --    70 C    1.621    72 N    0.195
    72   7 N    3.390 --    70 C    1.316    73 H    0.925    74 H    0.918
                            71 O    0.195
    73   1 H    0.945 --    72 N    0.925
    74   1 H    0.940 --    72 N    0.918
    75   6 C    3.928 --    76 O    1.621    77 N    1.282    62 C    0.941
    76   8 O    1.922 --    75 C    1.621    77 N    0.187
    77   7 N    3.454 --    75 C    1.282    79 C    0.984    78 H    0.920
                            76 O    0.187
    78   1 H    0.956 --    77 N    0.920
    79   6 C    3.964 --    77 N    0.984    81 C    0.973    90 C    0.944
                            80 H    0.941
    80   1 H    0.994 --    79 C    0.941
    81   6 C    3.988 --    84 C    1.005    83 H    0.975    79 C    0.973
                            82 H    0.972
    82   1 H    0.996 --    81 C    0.972
    83   1 H    0.997 --    81 C    0.975
    84   6 C    3.957 --    81 C    1.005    86 H    0.968    85 H    0.961
                            87 C    0.925
    85   1 H    0.997 --    84 C    0.961
    86   1 H    0.997 --    84 C    0.968
    87   6 C    3.923 --    88 O    1.491    89 O    1.484    84 C    0.925
    88   8 O    1.768 --    87 C    1.491    89 O    0.211
    89   8 O    1.755 --    87 C    1.484    88 O    0.211
    90   6 C    3.950 --    91 O    1.623    92 N    1.304    79 C    0.944
    91   8 O    1.936 --    90 C    1.623    92 N    0.195
    92   7 N    3.470 --    90 C    1.304    94 C    0.982    93 H    0.911
                            91 O    0.195
    93   1 H    0.958 --    92 N    0.911
    94   6 C    3.963 --    92 N    0.982    96 C    0.950   106 C    0.946
                            95 H    0.946
    95   1 H    0.995 --    94 C    0.946
    96   6 C    3.990 --   102 C    1.009    98 C    1.004    97 H    0.961
                            94 C    0.950
    97   1 H    0.996 --    96 C    0.961
    98   6 C    3.993 --    96 C    1.004   101 H    0.988   100 H    0.984
                            99 H    0.983
    99   1 H    0.996 --    98 C    0.983
   100   1 H    0.998 --    98 C    0.984
   101   1 H    0.999 --    98 C    0.988
   102   6 C    3.995 --    96 C    1.009   104 H    0.986   103 H    0.986
                           105 H    0.985
   103   1 H    0.999 --   102 C    0.986
   104   1 H    0.998 --   102 C    0.986
   105   1 H    0.997 --   102 C    0.985
   106   6 C    3.954 --   107 O    1.632   108 N    1.303    94 C    0.946
   107   8 O    1.954 --   106 C    1.632   108 N    0.193
   108   7 N    3.472 --   106 C    1.303   110 C    0.980   109 H    0.914
                           107 O    0.193
   109   1 H    0.954 --   108 N    0.914
   110   6 C    3.959 --   108 N    0.980   112 C    0.965   125 C    0.940
                           111 H    0.933
   111   1 H    0.994 --   110 C    0.933
   112   6 C    3.986 --   114 C    1.005   118 C    0.995   110 C    0.965
                           113 H    0.954
   113   1 H    0.996 --   112 C    0.954
   114   6 C    3.989 --   112 C    1.005   117 H    0.982   116 H    0.980
                           115 H    0.976
   115   1 H    0.996 --   114 C    0.976
   116   1 H    0.996 --   114 C    0.980
   117   1 H    0.999 --   114 C    0.982
   118   6 C    3.992 --   121 C    1.017   112 C    0.995   119 H    0.975
                           120 H    0.972
   119   1 H    0.998 --   118 C    0.975
   120   1 H    0.998 --   118 C    0.972
   121   6 C    3.980 --   118 C    1.017   123 H    0.983   122 H    0.976
                           124 H    0.975
   122   1 H    0.999 --   121 C    0.976
   123   1 H    0.997 --   121 C    0.983
   124   1 H    0.997 --   121 C    0.975
   125   6 C    3.946 --   126 O    1.641   127 N    1.285   110 C    0.940
   126   8 O    1.956 --   125 C    1.641   127 N    0.192
   127   7 N    3.448 --   125 C    1.285   129 C    0.978   128 H    0.906
                           126 O    0.192
   128   1 H    0.947 --   127 N    0.906
   129   6 C    3.962 --   149 C    0.996   127 N    0.978   131 C    0.951
                           130 H    0.934
   130   1 H    0.991 --   129 C    0.934
   131   6 C    3.971 --   134 C    1.006   132 H    0.967   133 H    0.966
                           129 C    0.951
   132   1 H    0.993 --   131 C    0.967
   133   1 H    0.994 --   131 C    0.966
   134   6 C    3.987 --   131 C    1.006   137 C    1.005   136 H    0.964
                           135 H    0.963
   135   1 H    0.995 --   134 C    0.963
   136   1 H    0.994 --   134 C    0.964
   137   6 C    3.951 --   134 C    1.005   140 N    0.979   138 H    0.959
                           139 H    0.959
   138   1 H    0.989 --   137 C    0.959
   139   1 H    0.991 --   137 C    0.959
   140   7 N    3.462 --   142 C    1.314   137 C    0.979   141 H    0.912
                           146 N    0.101   143 N    0.101
   141   1 H    0.948 --   140 N    0.912
   142   6 C    3.976 --   143 N    1.317   140 N    1.314   146 N    1.312
   143   7 N    3.387 --   142 C    1.317   144 H    0.915   145 H    0.912
                           140 N    0.101   146 N    0.101
   144   1 H    0.937 --   143 N    0.915
   145   1 H    0.932 --   143 N    0.912
   146   7 N    3.376 --   142 C    1.312   147 H    0.915   148 H    0.909
                           140 N    0.101   143 N    0.101
   147   1 H    0.935 --   146 N    0.915
   148   1 H    0.929 --   146 N    0.909
   149   6 C    3.886 --   150 O    1.879   129 C    0.996   219 H    0.935
   150   8 O    2.039 --   149 C    1.879
   151   7 N    2.977 --   153 C    1.025   152 H    0.946   220 H    0.944
   152   1 H    0.960 --   151 N    0.946
   153   6 C    3.967 --   151 N    1.025   155 C    0.988   154 H    0.940
                           159 C    0.932
   154   1 H    0.994 --   153 C    0.940
   155   6 C    3.966 --   153 C    0.988   156 H    0.981   158 H    0.979
                           157 H    0.979
   156   1 H    0.995 --   155 C    0.981
   157   1 H    0.996 --   155 C    0.979
   158   1 H    0.994 --   155 C    0.979
   159   6 C    3.928 --   160 O    1.620   161 N    1.308   153 C    0.932
   160   8 O    1.922 --   159 C    1.620   161 N    0.194
   161   7 N    3.474 --   159 C    1.308   163 C    0.984   162 H    0.915
                           160 O    0.194
   162   1 H    0.952 --   161 N    0.915
   163   6 C    3.963 --   180 C    0.997   161 N    0.984   165 C    0.947
                           164 H    0.912
   164   1 H    0.986 --   163 C    0.912
   165   6 C    3.981 --   168 C    1.008   167 H    0.969   166 H    0.954
                           163 C    0.947
   166   1 H    0.992 --   165 C    0.954
   167   1 H    0.995 --   165 C    0.969
   168   6 C    3.976 --   169 C    1.404   178 C    1.402   165 C    1.008
   169   6 C    3.987 --   171 C    1.461   168 C    1.404   170 H    0.963
                           176 C    0.102
   170   1 H    0.997 --   169 C    0.963
   171   6 C    3.982 --   169 C    1.461   173 C    1.349   172 H    0.967
                           178 C    0.109
   172   1 H    0.999 --   171 C    0.967
   173   6 C    3.925 --   176 C    1.373   171 C    1.349   174 O    1.077
   174   8 O    2.075 --   173 C    1.077   175 H    0.841
   175   1 H    0.860 --   174 O    0.841
   176   6 C    3.979 --   178 C    1.442   173 C    1.373   177 H    0.965
                           169 C    0.102
   177   1 H    0.996 --   176 C    0.965
   178   6 C    3.978 --   176 C    1.442   168 C    1.402   179 H    0.966
                           171 C    0.109
   179   1 H    0.996 --   178 C    0.966
   180   6 C    3.884 --   181 O    1.883   163 C    0.997   221 H    0.934
   181   8 O    2.039 --   180 C    1.883
   182   7 N    2.980 --   184 C    1.031   183 H    0.946   222 H    0.945
   183   1 H    0.961 --   182 N    0.946
   184   6 C    3.969 --   182 N    1.031   197 C    0.987   185 H    0.949
                           186 C    0.918
   185   1 H    0.987 --   184 C    0.949
   186   6 C    3.961 --   189 C    1.016   188 H    0.960   187 H    0.958
                           184 C    0.918
   187   1 H    0.992 --   186 C    0.958
   188   1 H    0.994 --   186 C    0.960
   189   6 C    3.960 --   195 C    1.547   190 N    1.267   186 C    1.016
   190   7 N    2.983 --   191 C    1.519   189 C    1.267   193 N    0.103
   191   6 C    3.948 --   190 N    1.519   193 N    1.296   192 H    0.964
                           195 C    0.112
   192   1 H    0.997 --   191 C    0.964
   193   7 N    3.601 --   191 C    1.296   195 C    1.215   194 H    0.919
                           190 N    0.103
   194   1 H    0.948 --   193 N    0.919
   195   6 C    3.917 --   189 C    1.547   193 N    1.215   196 H    0.961
                           191 C    0.112
   196   1 H    0.996 --   195 C    0.961
   197   6 C    3.886 --   198 O    1.899   184 C    0.987   223 H    0.935
   198   8 O    2.061 --   197 C    1.899
   199   7 N    2.982 --   201 C    1.016   200 H    0.942   224 H    0.938
   200   1 H    0.964 --   199 N    0.942
   201   6 C    3.960 --   199 N    1.016   216 C    0.977   202 H    0.947
                           203 C    0.933
   202   1 H    0.990 --   201 C    0.947
   203   6 C    3.961 --   205 C    1.006   209 C    0.995   204 H    0.960
                           201 C    0.933
   204   1 H    0.995 --   203 C    0.960
   205   6 C    3.991 --   203 C    1.006   207 H    0.979   208 H    0.979
                           206 H    0.978
   206   1 H    0.995 --   205 C    0.978
   207   1 H    0.998 --   205 C    0.979
   208   1 H    0.998 --   205 C    0.979
   209   6 C    3.993 --   212 C    1.015   203 C    0.995   211 H    0.976
                           210 H    0.975
   210   1 H    0.998 --   209 C    0.975
   211   1 H    0.999 --   209 C    0.976
   212   6 C    3.990 --   209 C    1.015   213 H    0.987   214 H    0.985
Note: The following floating-point exceptions are signalling: IEEE_UNDERFLOW_FLAG IEEE_DENORMAL
normal termination of xtb
                           215 H    0.977
   213   1 H    0.998 --   212 C    0.987
   214   1 H    0.997 --   212 C    0.985
   215   1 H    0.997 --   212 C    0.977
   216   6 C    3.869 --   217 O    1.890   201 C    0.977   225 H    0.934
   217   8 O    2.041 --   216 C    1.890
   218   1 H    0.967 --    60 N    0.950
   219   1 H    0.995 --   149 C    0.935
   220   1 H    0.957 --   151 N    0.944
   221   1 H    0.992 --   180 C    0.934
   222   1 H    0.958 --   182 N    0.945
   223   1 H    0.992 --   197 C    0.935
   224   1 H    0.954 --   199 N    0.938
   225   1 H    0.994 --   216 C    0.934
 ---------------------------------------------------------------------------

Topologies differ in total number of bonds
Writing topology from bond orders to xtbtopo.mol

molecular dipole:
                 x           y           z       tot (Debye)
 q only:       67.756      29.343      56.400
   full:       67.950      29.402      57.365     238.062
molecular quadrupole (traceless):
                xx          xy          yy          xz          yz          zz
 q only:     3060.812    3665.953   -2807.318    5880.626    1265.927    -253.494
  q+dip:     2970.248    3681.361   -2871.637    6005.196    1347.708     -98.611
   full:     2969.007    3679.107   -2869.885    6001.681    1348.469     -99.122


           -------------------------------------------------
          | TOTAL ENERGY             -345.550207921812 Eh   |
          | GRADIENT NORM               0.283137791419 Eh/α |
          | HOMO-LUMO GAP               0.312704538241 eV   |
           -------------------------------------------------

------------------------------------------------------------------------
 * finished run on 2026/01/05 at 09:06:36.537     
------------------------------------------------------------------------
 total:
 * wall-time:     0 d,  0 h,  0 min,  3.395 sec
 *  cpu-time:     0 d,  0 h,  0 min, 48.639 sec
 * ratio c/w:    14.327 speedup
 SCF:
 * wall-time:     0 d,  0 h,  0 min,  3.320 sec
 *  cpu-time:     0 d,  0 h,  0 min, 47.524 sec
 * ratio c/w:    14.317 speedup

