      -----------------------------------------------------------      
     |                   =====================                   |     
     |                           x T B                           |     
     |                   =====================                   |     
     |                         S. Grimme                         |     
     |          Mulliken Center for Theoretical Chemistry        |     
     |                    University of Bonn                     |     
      -----------------------------------------------------------      

   * xtb version 6.7.1 (edcfbbe) compiled by 'conda@c0858423619e' on 2025-09-04

   xtb is free software: you can redistribute it and/or modify it under
   the terms of the GNU Lesser General Public License as published by
   the Free Software Foundation, either version 3 of the License, or
   (at your option) any later version.
   
   xtb is distributed in the hope that it will be useful,
   but WITHOUT ANY WARRANTY; without even the implied warranty of
   MERCHANTABILITY or FITNESS FOR A PARTICULAR PURPOSE.  See the
   GNU Lesser General Public License for more details.
   
   Cite this work as:
   * C. Bannwarth, E. Caldeweyher, S. Ehlert, A. Hansen, P. Pracht,
     J. Seibert, S. Spicher, S. Grimme, WIREs Comput. Mol. Sci., 2020, 11,
     e01493. DOI: 10.1002/wcms.1493
   
   for GFN2-xTB:
   * C. Bannwarth, S. Ehlert and S. Grimme., J. Chem. Theory Comput., 2019,
     15, 1652-1671. DOI: 10.1021/acs.jctc.8b01176
   for GFN1-xTB:
   * S. Grimme, C. Bannwarth, P. Shushkov, J. Chem. Theory Comput., 2017,
     13, 1989-2009. DOI: 10.1021/acs.jctc.7b00118
   for GFN0-xTB:
   * P. Pracht, E. Caldeweyher, S. Ehlert, S. Grimme, ChemRxiv, 2019, preprint.
     DOI: 10.26434/chemrxiv.8326202.v1
   for GFN-FF:
   * S. Spicher and S. Grimme, Angew. Chem. Int. Ed., 2020, 59, 15665-15673.
     DOI: 10.1002/anie.202004239
   
   for ALPB and GBSA implicit solvation:
   * S. Ehlert, M. Stahn, S. Spicher, S. Grimme, J. Chem. Theory Comput.,
     2021, 17, 4250-4261. DOI: 10.1021/acs.jctc.1c00471
   
   for ddCOSMO and CPCM-X implicit solvation:
   * M. Stahn, S. Ehlert, S. Grimme, J. Phys. Chem. A,
     2023, XX, XXXX-XXXX. DOI: 10.1021/acs.jpca.3c04382
   
   for DFT-D4:
   * E. Caldeweyher, C. Bannwarth and S. Grimme, J. Chem. Phys., 2017,
     147, 034112. DOI: 10.1063/1.4993215
   * E. Caldeweyher, S. Ehlert, A. Hansen, H. Neugebauer, S. Spicher,
     C. Bannwarth and S. Grimme, J. Chem. Phys., 2019, 150, 154122.
     DOI: 10.1063/1.5090222
   * E. Caldeweyher, J.-M. Mewes, S. Ehlert and S. Grimme, Phys. Chem. Chem. Phys.
     2020, 22, 8499-8512. DOI: 10.1039/D0CP00502A
   
   for sTDA-xTB:
   * S. Grimme and C. Bannwarth, J. Chem. Phys., 2016, 145, 054103.
     DOI: 10.1063/1.4959605
   
   in the mass-spec context:
   * V. Asgeirsson, C. Bauer and S. Grimme, Chem. Sci., 2017, 8, 4879.
     DOI: 10.1039/c7sc00601b
   * J. Koopman and S. Grimme, ACS Omega 2019, 4, 12, 15120-15133.
     DOI: 10.1021/acsomega.9b02011
   
   for metadynamics refer to:
   * S. Grimme, J. Chem. Theory Comput., 2019, 155, 2847-2862
     DOI: 10.1021/acs.jctc.9b00143
   
   for SPH calculations refer to:
   * S. Spicher and S. Grimme, J. Chem. Theory Comput., 2021, 17, 1701-1714
     DOI: 10.1021/acs.jctc.0c01306
   
   for ONIOM refer to:
   * C. Plett, A. Katbashev, S. Ehlert, S. Grimme, M. Bursch,
     Phys. Chem. Chem. Phys., 2023, 25, 17860-17868. DOI: 10.1039/D3CP02178E
   
   for DIPRO refer to:
   * J. Kohn, N. Gildemeister, S. Grimme, D. Fazzi, A. Hansen,
     J. Chem. Phys., 2023, just accepted.
   
   for PTB refer to:
   * S. Grimme, M. Mueller, A. Hansen, J. Chem. Phys., 2023, 158, 124111.
     DOI: 10.1063/5.0137838
   
   with help from (in alphabetical order)
   P. Atkinson, C. Bannwarth, F. Bohle, G. Brandenburg, E. Caldeweyher
   M. Checinski, S. Dohm, S. Ehlert, S. Ehrlich, I. Gerasimov, C. Hölzer
   A. Katbashev, J. Kohn, J. Koopman, C. Lavigne, S. Lehtola, F. März, M. Müller,
   F. Musil, H. Neugebauer, J. Pisarek, C. Plett, P. Pracht, F. Pultar,
   J. Seibert, P. Shushkov, S. Spicher, M. Stahn, M. Steiner, T. Strunk,
   J. Stückrath, T. Rose, and J. Unsleber
   
 * started run on 2026/01/05 at 09:07:39.430     
   ID    Z sym.   atoms
    1    6 C      1, 3-11, 14-16, 18, 20, 21, 24-29, 32
    2    7 N      2, 22
    3    8 O      12, 13, 17, 30, 31
    4   16 S      19, 23
    5    1 H      33-59

           -------------------------------------------------
          |                Calculation Setup                |
           -------------------------------------------------

          program call               : xtb /home/antonio_mesquita/Documentos/gmx_ISA_project/testes_arquivos_primeiros/gmx_ISA_testes/testes_qm_xtb/QM_analysis/QM_FRAMES_CAPPED/frame_4400ps/ligand_isolated_4400ps.xyz --gfn 2 --alpb water --chrg 1 --etemp 1500 --cycles 1000
          coordinate file            : /home/antonio_mesquita/Documentos/gmx_ISA_project/testes_arquivos_primeiros/gmx_ISA_testes/testes_qm_xtb/QM_analysis/QM_FRAMES_CAPPED/frame_4400ps/ligand_isolated_4400ps.xyz
          omp threads                :                    16


           -------------------------------------------------
          |                 G F N 2 - x T B                 |
           -------------------------------------------------

        Reference                      10.1021/acs.jctc.8b01176
      * Hamiltonian:
        H0-scaling (s, p, d)           1.850000    2.230000    2.230000
        zeta-weighting                 0.500000
      * Dispersion:
        s8                             2.700000
        a1                             0.520000
        a2                             5.000000
        s9                             5.000000
      * Repulsion:
        kExp                           1.500000    1.000000
        rExp                           1.000000
      * Coulomb:
        alpha                          2.000000
        third order                    shell-resolved
        anisotropic                    true
        a3                             3.000000
        a5                             4.000000
        cn-shift                       1.200000
        cn-exp                         4.000000
        max-rad                        5.000000

      * Solvation model:               ALPB
        Solvent                        water
        Parameter file                 internal GFN2-xTB/ALPB
        Dielectric constant                8.0200E+01
        Reference state                gsolv [1 M gas/solution]
        Free energy shift                  1.0808E-03 Eh       6.7819E-01 kcal/mol
        Temperature                        2.9815E+02 K
        Density                            1.0000E+00 kg/L
        Solvent mass                       1.8000E+01 g/mol
        Interaction kernel             P16
        Born radius scaling (c1)           1.4744E+00
        Born radii integrator          GBOBC
        Born offset                        0.0000E+00 a0       0.0000E+00 AA
        H-bond correction              true
        Ion screening                  false
        Surface tension                    1.0000E-05 Eh       1.5569E+01 dyn/cm
        Grid points                               230 per atom

          ...................................................
          :                      SETUP                      :
          :.................................................:
          :  # basis functions                 167          :
          :  # atomic orbitals                 165          :
          :  # shells                           93          :
          :  # electrons                       170          :
          :  max. iterations                   250          :
          :  Hamiltonian                  GFN2-xTB          :
          :  restarted?                      false          :
          :  GBSA solvation                   true          :
          :  PC potential                    false          :
          :  electronic temp.         1500.0000000     K    :
          :  accuracy                    1.0000000          :
          :  -> integral cutoff          0.2500000E+02      :
          :  -> integral neglect         0.1000000E-07      :
          :  -> SCF convergence          0.1000000E-05 Eh   :
          :  -> wf. convergence          0.1000000E-03 e    :
          :  Broyden damping             0.4000000          :
          :  net charge                          1          :
          :  unpaired electrons                  0          :
          ...................................................

 iter      E             dE          RMSdq      gap      omega  full diag
   1    -96.2210403 -0.962210E+02  0.494E+00    1.02       0.0  T
   2    -96.1852827  0.357576E-01  0.397E+00    0.50       1.0  T
   3    -96.3098637 -0.124581E+00  0.279E+00    1.37       1.0  T
   4    -96.4032228 -0.933590E-01  0.154E+00    0.44       1.0  T
   5    -96.3723840  0.308388E-01  0.133E+00    1.09       1.0  T
   6    -96.4277074 -0.553235E-01  0.533E-01    0.48       1.0  T
   7    -96.4310583 -0.335091E-02  0.250E-01    0.27       1.0  T
   8    -96.4320478 -0.989505E-03  0.130E-01    0.36       1.0  T
   9    -96.4322647 -0.216833E-03  0.719E-02    0.31       1.0  T
  10    -96.4323179 -0.532050E-04  0.571E-02    0.35       1.0  T
  11    -96.4323835 -0.656672E-04  0.961E-03    0.33       1.4  T
  12    -96.4323831  0.423954E-06  0.948E-03    0.33       1.4  T
  13    -96.4323851 -0.197779E-05  0.219E-03    0.33       5.9  T
  14    -96.4323852 -0.780675E-07  0.671E-04    0.33      19.4  T
  15    -96.4323852 -0.374824E-08  0.339E-04    0.33      38.4  T

   *** convergence criteria satisfied after 15 iterations ***

         #    Occupation            Energy/Eh            Energy/eV
      -------------------------------------------------------------
         1        2.0000           -0.7987896             -21.7362
       ...           ...                  ...                  ...
        79        1.9994           -0.4320482             -11.7566
        80        1.9969           -0.4246355             -11.5549
        81        1.9968           -0.4244130             -11.5489
        82        1.9776           -0.4151796             -11.2976
        83        1.9691           -0.4136245             -11.2553
        84        1.9236           -0.4092171             -11.1354
        85        1.6309           -0.4009539             -10.9105 (HOMO)
        86        0.5066           -0.3887603             -10.5787 (LUMO)
        87                         -0.2776223              -7.5545
        88                         -0.2607278              -7.0948
        89                         -0.2506201              -6.8197
        90                         -0.2433700              -6.6224
       ...                                ...                  ...
       165                          1.0225103              27.8239
      -------------------------------------------------------------
                  HL-Gap            0.0121936 Eh            0.3318 eV
             Fermi-level           -0.3938961 Eh          -10.7185 eV

 SCC (total)                   0 d,  0 h,  0 min,  0.181 sec
 SCC setup                      ...        0 min,  0.004 sec (  2.429%)
 Dispersion                     ...        0 min,  0.001 sec (  0.548%)
 classical contributions        ...        0 min,  0.001 sec (  0.340%)
 integral evaluation            ...        0 min,  0.012 sec (  6.496%)
 iterations                     ...        0 min,  0.133 sec ( 73.818%)
 molecular gradient             ...        0 min,  0.029 sec ( 16.241%)
 printout                       ...        0 min,  0.000 sec (  0.114%)

         :::::::::::::::::::::::::::::::::::::::::::::::::::::
         ::                     SUMMARY                     ::
         :::::::::::::::::::::::::::::::::::::::::::::::::::::
         :: total energy             -95.284900859967 Eh    ::
         :: total w/o Gsasa/hb       -95.280738589035 Eh    ::
         :: gradient norm              0.153744081378 Eh/a0 ::
         :: HOMO-LUMO gap              0.331804504600 eV    ::
         ::.................................................::
         :: SCC energy               -96.431408828047 Eh    ::
         :: -> isotropic ES            0.240663822918 Eh    ::
         :: -> anisotropic ES         -0.025302286428 Eh    ::
         :: -> anisotropic XC          0.041105791201 Eh    ::
         :: -> dispersion             -0.067599182234 Eh    ::
         :: -> Gsolv                  -0.094953803415 Eh    ::
         ::    -> Gelec               -0.090791532483 Eh    ::
         ::    -> Gsasa                0.003030717808 Eh    ::
         ::    -> Ghb                 -0.008273748438 Eh    ::
         ::    -> Gshift               0.001080759698 Eh    ::
         :: repulsion energy           1.146507968080 Eh    ::
         :: add. restraining           0.000000000000 Eh    ::
         :: total charge               1.000000000000 e     ::
         :::::::::::::::::::::::::::::::::::::::::::::::::::::

           -------------------------------------------------
          |                Property Printout                |
           -------------------------------------------------

    * Orbital Energies and Occupations

         #    Occupation            Energy/Eh            Energy/eV
      -------------------------------------------------------------
         1        2.0000           -0.7987896             -21.7362
       ...           ...                  ...                  ...
        73        2.0000           -0.4597113             -12.5094
        74        2.0000           -0.4558145             -12.4033
        75        1.9999           -0.4426078             -12.0440
        76        1.9999           -0.4401773             -11.9778
        77        1.9999           -0.4398263             -11.9683
        78        1.9996           -0.4347847             -11.8311
        79        1.9994           -0.4320482             -11.7566
        80        1.9969           -0.4246355             -11.5549
        81        1.9968           -0.4244130             -11.5489
        82        1.9776           -0.4151796             -11.2976
        83        1.9691           -0.4136245             -11.2553
        84        1.9236           -0.4092171             -11.1354
        85        1.6309           -0.4009539             -10.9105 (HOMO)
        86        0.5066           -0.3887603             -10.5787 (LUMO)
        87                         -0.2776223              -7.5545
        88                         -0.2607278              -7.0948
        89                         -0.2506201              -6.8197
        90                         -0.2433700              -6.6224
        91                         -0.2427322              -6.6051
        92                         -0.2418460              -6.5810
        93                         -0.2357272              -6.4145
        94                         -0.1819687              -4.9516
        95                         -0.1726877              -4.6991
        96                         -0.1494180              -4.0659
       ...                                ...                  ...
       165                          1.0225103              27.8239
      -------------------------------------------------------------
                  HL-Gap            0.0121936 Eh            0.3318 eV
             Fermi-level           -0.3938961 Eh          -10.7185 eV

     #   Z          covCN         q      C6AA      α(0)
     1   6 C        2.744     0.287    22.140     7.704
     2   7 N        2.691    -0.073    22.658     7.070
     3   6 C        2.869     0.080    26.207     8.392
     4   6 C        3.690     0.069    19.601     6.336
     5   6 C        3.809    -0.082    22.050     6.684
     6   6 C        2.985     0.039    27.114     8.541
     7   6 C        2.907    -0.041    29.030     8.835
     8   6 C        2.919    -0.029    28.722     8.788
     9   6 C        2.904    -0.028    28.698     8.784
    10   6 C        2.926    -0.025    28.634     8.775
    11   6 C        2.903    -0.032    28.789     8.798
    12   8 O        1.703    -0.243    18.033     5.733
    13   8 O        0.856    -0.440    22.497     6.359
    14   6 C        2.715     0.348    21.082     7.516
    15   6 C        3.745    -0.135    23.179     6.868
    16   6 C        3.848    -0.007    20.676     6.468
    17   8 O        0.857    -0.392    21.528     6.221
    18   6 C        3.792    -0.054    21.545     6.610
    19  16 S        1.983     0.030   139.852    19.904
    20   6 C        3.790    -0.067    21.797     6.649
    21   6 C        3.848     0.013    20.325     6.413
    22   7 N        2.732    -0.262    26.794     7.688
    23  16 S        3.790     1.147   102.536    17.043
    24   6 C        2.954    -0.088    30.192     9.012
    25   6 C        2.947    -0.033    28.826     8.806
    26   6 C        2.913    -0.041    29.010     8.832
    27   6 C        2.966     0.039    27.113     8.541
    28   6 C        2.911    -0.040    28.989     8.829
    29   6 C        2.952    -0.030    28.756     8.795
    30   8 O        0.860    -0.646    27.263     7.001
    31   8 O        0.860    -0.636    27.007     6.968
    32   6 C        3.755    -0.140    23.258     6.876
    33   1 H        0.860     0.277     0.785     1.388
    34   1 H        0.922     0.076     2.018     2.222
    35   1 H        0.924     0.082     1.958     2.188
    36   1 H        0.924     0.130     1.537     1.938
    37   1 H        0.923     0.130     1.538     1.939
    38   1 H        0.925     0.064     2.156     2.296
    39   1 H        0.924     0.060     2.197     2.318
    40   1 H        0.925     0.057     2.229     2.335
    41   1 H        0.926     0.052     2.293     2.368
    42   1 H        0.926     0.069     2.100     2.266
    43   1 H        0.923     0.073     2.048     2.238
    44   1 H        0.925     0.069     2.099     2.266
    45   1 H        0.924     0.068     2.103     2.268
    46   1 H        0.923     0.076     2.024     2.225
    47   1 H        0.923     0.081     1.971     2.196
    48   1 H        0.924     0.116     1.650     2.009
    49   1 H        0.923     0.111     1.688     2.032
    50   1 H        0.923     0.135     1.500     1.915
    51   1 H        0.924     0.128     1.551     1.948
    52   1 H        0.924     0.131     1.529     1.934
    53   1 H        0.925     0.069     2.097     2.265
    54   1 H        0.925     0.085     1.929     2.172
    55   1 H        0.925     0.085     1.926     2.170
    56   1 H        0.925     0.062     2.180     2.309
    57   1 H        0.924     0.090     1.881     2.145
    58   1 H        0.923     0.064     2.149     2.292
    59   1 H        0.924     0.072     2.061     2.245

 Mol. C6AA /au·bohr⁶  :      43332.983200
 Mol. C8AA /au·bohr⁸  :    1116916.124269
 Mol. α(0) /au        :        323.725331


Wiberg/Mayer (AO) data.
largest (>0.10) Wiberg bond orders for each atom

 ---------------------------------------------------------------------------
     #   Z sym  total        # sym  WBO       # sym  WBO       # sym  WBO
 ---------------------------------------------------------------------------
     1   6 C    3.895 --    17 O    1.742     2 N    1.138    21 C    0.942
     2   7 N    3.538 --     3 C    1.292     1 C    1.138    33 H    0.871
                            17 O    0.106
     3   6 C    3.597 --     2 N    1.292     5 C    1.064    14 C    1.039
     4   6 C    3.899 --    15 C    1.011    34 H    0.963    35 H    0.953
                            12 O    0.929
     5   6 C    3.945 --     3 C    1.064     6 C    0.958    36 H    0.921
                            37 H    0.909
     6   6 C    3.915 --    11 C    1.397     7 C    1.397     5 C    0.958
     7   6 C    3.960 --     8 C    1.434     6 C    1.397    38 H    0.966
                            10 C    0.105
     8   6 C    3.962 --     7 C    1.434     9 C    1.425    39 H    0.964
                            11 C    0.105
     9   6 C    3.943 --     8 C    1.425    10 C    1.423    40 H    0.968
    10   6 C    3.964 --    11 C    1.435     9 C    1.423    41 H    0.968
                             7 C    0.105
    11   6 C    3.958 --    10 C    1.435     6 C    1.397    42 H    0.964
                             8 C    0.105
    12   8 O    2.309 --    14 C    1.141     4 C    0.929    13 O    0.181
    13   8 O    1.946 --    14 C    1.648    12 O    0.181
    14   6 C    3.899 --    13 O    1.648    12 O    1.141     3 C    1.039
    15   6 C    3.980 --     4 C    1.011    45 H    0.984    44 H    0.983
                            43 H    0.981
    16   6 C    3.942 --    18 C    0.996    22 N    0.987    46 H    0.961
                            47 H    0.951
    17   8 O    2.011 --     1 C    1.742     2 N    0.106
    18   6 C    3.948 --    16 C    0.996    19 S    0.988    49 H    0.964
                            48 H    0.957
    19  16 S    2.084 --    20 C    0.999    18 C    0.988
    20   6 C    3.948 --    19 S    0.999    21 C    0.987    51 H    0.951
                            50 H    0.947
    21   6 C    3.948 --    20 C    0.987    22 N    0.980     1 C    0.942
                            52 H    0.906
    22   7 N    3.191 --    16 C    0.987    21 C    0.980    23 S    0.892
    23  16 S    4.851 --    31 O    1.566    30 O    1.545    22 N    0.892
                            24 C    0.747
    24   6 C    3.937 --    29 C    1.407    25 C    1.404    23 S    0.747
    25   6 C    3.978 --    26 C    1.444    24 C    1.404    53 H    0.965
                            28 C    0.105
    26   6 C    3.974 --    25 C    1.444    27 C    1.397    54 H    0.963
                            29 C    0.105
    27   6 C    3.969 --    26 C    1.397    28 C    1.395    32 C    1.029
    28   6 C    3.973 --    29 C    1.444    27 C    1.395    55 H    0.962
                            25 C    0.105
    29   6 C    3.983 --    28 C    1.444    24 C    1.407    56 H    0.962
                            26 C    0.105
    30   8 O    1.849 --    23 S    1.545    31 O    0.103
    31   8 O    1.857 --    23 S    1.566    30 O    0.103
    32   6 C    3.980 --    27 C    1.029    59 H    0.979    58 H    0.977
                            57 H    0.947
    33   1 H    0.923 --     2 N    0.871
    34   1 H    0.992 --     4 C    0.963
    35   1 H    0.987 --     4 C    0.953
    36   1 H    0.973 --     5 C    0.921
    37   1 H    0.962 --     5 C    0.909
    38   1 H    0.996 --     7 C    0.966
    39   1 H    0.993 --     8 C    0.964
    40   1 H    0.994 --     9 C    0.968
    41   1 H    0.995 --    10 C    0.968
    42   1 H    0.994 --    11 C    0.964
    43   1 H    0.993 --    15 C    0.981
    44   1 H    0.995 --    15 C    0.983
    45   1 H    0.995 --    15 C    0.984
    46   1 H    0.992 --    16 C    0.961
    47   1 H    0.992 --    16 C    0.951
    48   1 H    0.976 --    18 C    0.957
    49   1 H    0.987 --    18 C    0.964
    50   1 H    0.967 --    20 C    0.947
    51   1 H    0.983 --    20 C    0.951
    52   1 H    0.980 --    21 C    0.906
    53   1 H    0.995 --    25 C    0.965
    54   1 H    0.992 --    26 C    0.963
    55   1 H    0.991 --    28 C    0.962
    56   1 H    0.996 --    29 C    0.962
    57   1 H    0.986 --    32 C    0.947
    58   1 H    0.995 --    32 C    0.977
    59   1 H    0.994 --    32 C    0.979
 ---------------------------------------------------------------------------

Topologies differ in total number of bonds
Writing topology from bond orders to xtbtopo.mol

molecular dipole:
                 x           y           z       tot (Debye)
 q only:       20.977      19.752     109.447
   full:       20.905      19.272     109.289     287.031
molecular quadrupole (traceless):
                xx          xy          yy          xz          yz          zz
 q only:    -5723.394     665.029   -5847.709    3390.696    3187.226   11571.103
  q+dip:    -5701.942     644.885   -5848.576    3380.306    3106.464   11550.518
   full:    -5702.192     644.569   -5847.396    3379.725    3106.167   11549.588


           -------------------------------------------------
          | TOTAL ENERGY              -95.284900859967 Eh   |
          | GRADIENT NORM               0.153744081378 Eh/α |
          | HOMO-LUMO GAP               0.331804504600 eV   |
           -------------------------------------------------

------------------------------------------------------------------------
Note: The following floating-point exceptions are signalling: IEEE_UNDERFLOW_FLAG IEEE_DENORMAL
normal termination of xtb
 * finished run on 2026/01/05 at 09:07:39.637     
------------------------------------------------------------------------
 total:
 * wall-time:     0 d,  0 h,  0 min,  0.207 sec
 *  cpu-time:     0 d,  0 h,  0 min,  3.127 sec
 * ratio c/w:    15.128 speedup
 SCF:
 * wall-time:     0 d,  0 h,  0 min,  0.181 sec
 *  cpu-time:     0 d,  0 h,  0 min,  2.740 sec
 * ratio c/w:    15.132 speedup

