      -----------------------------------------------------------      
     |                   =====================                   |     
     |                           x T B                           |     
     |                   =====================                   |     
     |                         S. Grimme                         |     
     |          Mulliken Center for Theoretical Chemistry        |     
     |                    University of Bonn                     |     
      -----------------------------------------------------------      

   * xtb version 6.7.1 (edcfbbe) compiled by 'conda@c0858423619e' on 2025-09-04

   xtb is free software: you can redistribute it and/or modify it under
   the terms of the GNU Lesser General Public License as published by
   the Free Software Foundation, either version 3 of the License, or
   (at your option) any later version.
   
   xtb is distributed in the hope that it will be useful,
   but WITHOUT ANY WARRANTY; without even the implied warranty of
   MERCHANTABILITY or FITNESS FOR A PARTICULAR PURPOSE.  See the
   GNU Lesser General Public License for more details.
   
   Cite this work as:
   * C. Bannwarth, E. Caldeweyher, S. Ehlert, A. Hansen, P. Pracht,
     J. Seibert, S. Spicher, S. Grimme, WIREs Comput. Mol. Sci., 2020, 11,
     e01493. DOI: 10.1002/wcms.1493
   
   for GFN2-xTB:
   * C. Bannwarth, S. Ehlert and S. Grimme., J. Chem. Theory Comput., 2019,
     15, 1652-1671. DOI: 10.1021/acs.jctc.8b01176
   for GFN1-xTB:
   * S. Grimme, C. Bannwarth, P. Shushkov, J. Chem. Theory Comput., 2017,
     13, 1989-2009. DOI: 10.1021/acs.jctc.7b00118
   for GFN0-xTB:
   * P. Pracht, E. Caldeweyher, S. Ehlert, S. Grimme, ChemRxiv, 2019, preprint.
     DOI: 10.26434/chemrxiv.8326202.v1
   for GFN-FF:
   * S. Spicher and S. Grimme, Angew. Chem. Int. Ed., 2020, 59, 15665-15673.
     DOI: 10.1002/anie.202004239
   
   for ALPB and GBSA implicit solvation:
   * S. Ehlert, M. Stahn, S. Spicher, S. Grimme, J. Chem. Theory Comput.,
     2021, 17, 4250-4261. DOI: 10.1021/acs.jctc.1c00471
   
   for ddCOSMO and CPCM-X implicit solvation:
   * M. Stahn, S. Ehlert, S. Grimme, J. Phys. Chem. A,
     2023, XX, XXXX-XXXX. DOI: 10.1021/acs.jpca.3c04382
   
   for DFT-D4:
   * E. Caldeweyher, C. Bannwarth and S. Grimme, J. Chem. Phys., 2017,
     147, 034112. DOI: 10.1063/1.4993215
   * E. Caldeweyher, S. Ehlert, A. Hansen, H. Neugebauer, S. Spicher,
     C. Bannwarth and S. Grimme, J. Chem. Phys., 2019, 150, 154122.
     DOI: 10.1063/1.5090222
   * E. Caldeweyher, J.-M. Mewes, S. Ehlert and S. Grimme, Phys. Chem. Chem. Phys.
     2020, 22, 8499-8512. DOI: 10.1039/D0CP00502A
   
   for sTDA-xTB:
   * S. Grimme and C. Bannwarth, J. Chem. Phys., 2016, 145, 054103.
     DOI: 10.1063/1.4959605
   
   in the mass-spec context:
   * V. Asgeirsson, C. Bauer and S. Grimme, Chem. Sci., 2017, 8, 4879.
     DOI: 10.1039/c7sc00601b
   * J. Koopman and S. Grimme, ACS Omega 2019, 4, 12, 15120-15133.
     DOI: 10.1021/acsomega.9b02011
   
   for metadynamics refer to:
   * S. Grimme, J. Chem. Theory Comput., 2019, 155, 2847-2862
     DOI: 10.1021/acs.jctc.9b00143
   
   for SPH calculations refer to:
   * S. Spicher and S. Grimme, J. Chem. Theory Comput., 2021, 17, 1701-1714
     DOI: 10.1021/acs.jctc.0c01306
   
   for ONIOM refer to:
   * C. Plett, A. Katbashev, S. Ehlert, S. Grimme, M. Bursch,
     Phys. Chem. Chem. Phys., 2023, 25, 17860-17868. DOI: 10.1039/D3CP02178E
   
   for DIPRO refer to:
   * J. Kohn, N. Gildemeister, S. Grimme, D. Fazzi, A. Hansen,
     J. Chem. Phys., 2023, just accepted.
   
   for PTB refer to:
   * S. Grimme, M. Mueller, A. Hansen, J. Chem. Phys., 2023, 158, 124111.
     DOI: 10.1063/5.0137838
   
   with help from (in alphabetical order)
   P. Atkinson, C. Bannwarth, F. Bohle, G. Brandenburg, E. Caldeweyher
   M. Checinski, S. Dohm, S. Ehlert, S. Ehrlich, I. Gerasimov, C. Hölzer
   A. Katbashev, J. Kohn, J. Koopman, C. Lavigne, S. Lehtola, F. März, M. Müller,
   F. Musil, H. Neugebauer, J. Pisarek, C. Plett, P. Pracht, F. Pultar,
   J. Seibert, P. Shushkov, S. Spicher, M. Stahn, M. Steiner, T. Strunk,
   J. Stückrath, T. Rose, and J. Unsleber
   
 * started run on 2026/01/05 at 09:06:30.956     
   ID    Z sym.   atoms
    1    6 C      1, 3-11, 14-16, 18, 20, 21, 24-29, 32
    2    7 N      2, 22
    3    8 O      12, 13, 17, 30, 31
    4   16 S      19, 23
    5    1 H      33-59

           -------------------------------------------------
          |                Calculation Setup                |
           -------------------------------------------------

          program call               : xtb /home/antonio_mesquita/Documentos/gmx_ISA_project/testes_arquivos_primeiros/gmx_ISA_testes/testes_qm_xtb/QM_analysis/QM_FRAMES_CAPPED/frame_1600ps/ligand_isolated_1600ps.xyz --gfn 2 --alpb water --chrg 1 --etemp 1500 --cycles 1000
          coordinate file            : /home/antonio_mesquita/Documentos/gmx_ISA_project/testes_arquivos_primeiros/gmx_ISA_testes/testes_qm_xtb/QM_analysis/QM_FRAMES_CAPPED/frame_1600ps/ligand_isolated_1600ps.xyz
          omp threads                :                    16


           -------------------------------------------------
          |                 G F N 2 - x T B                 |
           -------------------------------------------------

        Reference                      10.1021/acs.jctc.8b01176
      * Hamiltonian:
        H0-scaling (s, p, d)           1.850000    2.230000    2.230000
        zeta-weighting                 0.500000
      * Dispersion:
        s8                             2.700000
        a1                             0.520000
        a2                             5.000000
        s9                             5.000000
      * Repulsion:
        kExp                           1.500000    1.000000
        rExp                           1.000000
      * Coulomb:
        alpha                          2.000000
        third order                    shell-resolved
        anisotropic                    true
        a3                             3.000000
        a5                             4.000000
        cn-shift                       1.200000
        cn-exp                         4.000000
        max-rad                        5.000000

      * Solvation model:               ALPB
        Solvent                        water
        Parameter file                 internal GFN2-xTB/ALPB
        Dielectric constant                8.0200E+01
        Reference state                gsolv [1 M gas/solution]
        Free energy shift                  1.0808E-03 Eh       6.7819E-01 kcal/mol
        Temperature                        2.9815E+02 K
        Density                            1.0000E+00 kg/L
        Solvent mass                       1.8000E+01 g/mol
        Interaction kernel             P16
        Born radius scaling (c1)           1.4744E+00
        Born radii integrator          GBOBC
        Born offset                        0.0000E+00 a0       0.0000E+00 AA
        H-bond correction              true
        Ion screening                  false
        Surface tension                    1.0000E-05 Eh       1.5569E+01 dyn/cm
        Grid points                               230 per atom

          ...................................................
          :                      SETUP                      :
          :.................................................:
          :  # basis functions                 167          :
          :  # atomic orbitals                 165          :
          :  # shells                           93          :
          :  # electrons                       170          :
          :  max. iterations                   250          :
          :  Hamiltonian                  GFN2-xTB          :
          :  restarted?                      false          :
          :  GBSA solvation                   true          :
          :  PC potential                    false          :
          :  electronic temp.         1500.0000000     K    :
          :  accuracy                    1.0000000          :
          :  -> integral cutoff          0.2500000E+02      :
          :  -> integral neglect         0.1000000E-07      :
          :  -> SCF convergence          0.1000000E-05 Eh   :
          :  -> wf. convergence          0.1000000E-03 e    :
          :  Broyden damping             0.4000000          :
          :  net charge                          1          :
          :  unpaired electrons                  0          :
          ...................................................

 iter      E             dE          RMSdq      gap      omega  full diag
   1    -96.2282163 -0.962282E+02  0.512E+00    0.97       0.0  T
   2    -96.2482291 -0.200129E-01  0.381E+00    0.32       1.0  T
   3    -96.3158167 -0.675875E-01  0.280E+00    1.55       1.0  T
   4    -96.4045095 -0.886929E-01  0.149E+00    0.66       1.0  T
   5    -96.3838672  0.206423E-01  0.124E+00    1.04       1.0  T
   6    -96.4269166 -0.430495E-01  0.342E-01    0.45       1.0  T
   7    -96.4278466 -0.930012E-03  0.133E-01    0.36       1.0  T
   8    -96.4280060 -0.159333E-03  0.739E-02    0.39       1.0  T
   9    -96.4280633 -0.572998E-04  0.257E-02    0.38       1.0  T
  10    -96.4280698 -0.656649E-05  0.182E-02    0.39       1.0  T
  11    -96.4280739 -0.403243E-05  0.970E-03    0.38       1.3  T
  12    -96.4280753 -0.147038E-05  0.578E-03    0.39       2.3  T
  13    -96.4280759 -0.536666E-06  0.179E-03    0.39       7.3  T
  14    -96.4280759 -0.570181E-07  0.556E-04    0.39      23.4  T
  15    -96.4280759 -0.259209E-08  0.320E-04    0.39      40.7  T

   *** convergence criteria satisfied after 15 iterations ***

         #    Occupation            Energy/Eh            Energy/eV
      -------------------------------------------------------------
         1        2.0000           -0.8019902             -21.8233
       ...           ...                  ...                  ...
        79        1.9988           -0.4302114             -11.7066
        80        1.9979           -0.4275314             -11.6337
        81        1.9943           -0.4228144             -11.5054
        82        1.9883           -0.4194017             -11.4125
        83        1.9773           -0.4162168             -11.3258
        84        1.9765           -0.4160476             -11.3212
        85        1.6649           -0.4026058             -10.9555 (HOMO)
        86        0.4025           -0.3884421             -10.5700 (LUMO)
        87                         -0.2865074              -7.7963
        88                         -0.2656267              -7.2281
        89                         -0.2562782              -6.9737
        90                         -0.2483807              -6.7588
       ...                                ...                  ...
       165                          1.0355398              28.1785
      -------------------------------------------------------------
                  HL-Gap            0.0141637 Eh            0.3854 eV
             Fermi-level           -0.3949906 Eh          -10.7482 eV

 SCC (total)                   0 d,  0 h,  0 min,  0.238 sec
 SCC setup                      ...        0 min,  0.003 sec (  1.066%)
 Dispersion                     ...        0 min,  0.002 sec (  0.758%)
 classical contributions        ...        0 min,  0.000 sec (  0.120%)
 integral evaluation            ...        0 min,  0.015 sec (  6.116%)
 iterations                     ...        0 min,  0.171 sec ( 71.791%)
 molecular gradient             ...        0 min,  0.048 sec ( 19.981%)
 printout                       ...        0 min,  0.000 sec (  0.156%)

         :::::::::::::::::::::::::::::::::::::::::::::::::::::
         ::                     SUMMARY                     ::
         :::::::::::::::::::::::::::::::::::::::::::::::::::::
         :: total energy             -95.280284757305 Eh    ::
         :: total w/o Gsasa/hb       -95.276942968369 Eh    ::
         :: gradient norm              0.145133031268 Eh/a0 ::
         :: HOMO-LUMO gap              0.385413310183 eV    ::
         ::.................................................::
         :: SCC energy               -96.427234180016 Eh    ::
         :: -> isotropic ES            0.248104259275 Eh    ::
         :: -> anisotropic ES         -0.028113611114 Eh    ::
         :: -> anisotropic XC          0.041635923923 Eh    ::
         :: -> dispersion             -0.068458039973 Eh    ::
         :: -> Gsolv                  -0.097198093707 Eh    ::
         ::    -> Gelec               -0.093856304771 Eh    ::
         ::    -> Gsasa                0.003843516368 Eh    ::
         ::    -> Ghb                 -0.008266065002 Eh    ::
         ::    -> Gshift               0.001080759698 Eh    ::
         :: repulsion energy           1.146949422711 Eh    ::
         :: add. restraining           0.000000000000 Eh    ::
         :: total charge               1.000000000000 e     ::
         :::::::::::::::::::::::::::::::::::::::::::::::::::::

           -------------------------------------------------
          |                Property Printout                |
           -------------------------------------------------

    * Orbital Energies and Occupations

         #    Occupation            Energy/Eh            Energy/eV
      -------------------------------------------------------------
         1        2.0000           -0.8019902             -21.8233
       ...           ...                  ...                  ...
        73        2.0000           -0.4590794             -12.4922
        74        2.0000           -0.4525327             -12.3140
        75        1.9999           -0.4452871             -12.1169
        76        1.9999           -0.4436504             -12.0723
        77        1.9999           -0.4432523             -12.0615
        78        1.9997           -0.4363518             -11.8737
        79        1.9988           -0.4302114             -11.7066
        80        1.9979           -0.4275314             -11.6337
        81        1.9943           -0.4228144             -11.5054
        82        1.9883           -0.4194017             -11.4125
        83        1.9773           -0.4162168             -11.3258
        84        1.9765           -0.4160476             -11.3212
        85        1.6649           -0.4026058             -10.9555 (HOMO)
        86        0.4025           -0.3884421             -10.5700 (LUMO)
        87                         -0.2865074              -7.7963
        88                         -0.2656267              -7.2281
        89                         -0.2562782              -6.9737
        90                         -0.2483807              -6.7588
        91                         -0.2424246              -6.5967
        92                         -0.2404121              -6.5419
        93                         -0.2361403              -6.4257
        94                         -0.1836421              -4.9972
        95                         -0.1798531              -4.8941
        96                         -0.1502973              -4.0898
       ...                                ...                  ...
       165                          1.0355398              28.1785
      -------------------------------------------------------------
                  HL-Gap            0.0141637 Eh            0.3854 eV
             Fermi-level           -0.3949906 Eh          -10.7482 eV

     #   Z          covCN         q      C6AA      α(0)
     1   6 C        2.742     0.284    22.193     7.713
     2   7 N        2.684    -0.064    22.485     7.042
     3   6 C        2.869     0.101    25.763     8.320
     4   6 C        3.706     0.069    19.571     6.324
     5   6 C        3.804    -0.081    22.049     6.685
     6   6 C        2.955     0.031    27.317     8.573
     7   6 C        2.923    -0.039    28.972     8.827
     8   6 C        2.918    -0.030    28.746     8.792
     9   6 C        2.904    -0.028    28.711     8.786
    10   6 C        2.924    -0.026    28.651     8.778
    11   6 C        2.916    -0.037    28.921     8.819
    12   8 O        1.705    -0.242    18.014     5.730
    13   8 O        0.856    -0.419    22.059     6.297
    14   6 C        2.726     0.356    20.955     7.494
    15   6 C        3.746    -0.138    23.228     6.875
    16   6 C        3.856     0.000    20.536     6.445
    17   8 O        0.859    -0.401    21.708     6.247
    18   6 C        3.789    -0.053    21.537     6.610
    19  16 S        1.971     0.036   139.584    19.885
    20   6 C        3.792    -0.067    21.797     6.649
    21   6 C        3.857     0.028    20.072     6.372
    22   7 N        2.731    -0.270    26.968     7.713
    23  16 S        3.829     1.160   102.190    17.014
    24   6 C        2.968    -0.089    30.219     9.017
    25   6 C        2.935    -0.030    28.746     8.793
    26   6 C        2.910    -0.031    28.783     8.797
    27   6 C        2.960     0.040    27.107     8.540
    28   6 C        2.931    -0.039    28.974     8.828
    29   6 C        2.958    -0.037    28.912     8.819
    30   8 O        0.860    -0.660    27.643     7.049
    31   8 O        0.860    -0.635    27.001     6.967
    32   6 C        3.754    -0.138    23.212     6.870
    33   1 H        0.861     0.274     0.796     1.397
    34   1 H        0.924     0.074     2.039     2.233
    35   1 H        0.924     0.083     1.946     2.182
    36   1 H        0.924     0.141     1.453     1.885
    37   1 H        0.924     0.117     1.638     2.001
    38   1 H        0.925     0.051     2.308     2.376
    39   1 H        0.925     0.055     2.260     2.351
    40   1 H        0.925     0.060     2.196     2.318
    41   1 H        0.925     0.058     2.217     2.328
    42   1 H        0.925     0.062     2.178     2.308
    43   1 H        0.924     0.067     2.114     2.274
    44   1 H        0.924     0.067     2.120     2.277
    45   1 H        0.924     0.074     2.047     2.238
    46   1 H        0.925     0.062     2.178     2.308
    47   1 H        0.923     0.072     2.067     2.248
    48   1 H        0.923     0.116     1.650     2.009
    49   1 H        0.923     0.109     1.709     2.044
    50   1 H        0.924     0.129     1.541     1.942
    51   1 H        0.923     0.120     1.616     1.988
    52   1 H        0.924     0.121     1.608     1.983
    53   1 H        0.925     0.084     1.935     2.175
    54   1 H        0.926     0.096     1.818     2.108
    55   1 H        0.925     0.072     2.064     2.247
    56   1 H        0.924     0.064     2.152     2.294
    57   1 H        0.924     0.066     2.130     2.282
    58   1 H        0.924     0.071     2.072     2.251
    59   1 H        0.924     0.086     1.916     2.165

 Mol. C6AA /au·bohr⁶  :      43375.520278
 Mol. C8AA /au·bohr⁸  :    1117137.765016
 Mol. α(0) /au        :        323.879583


Wiberg/Mayer (AO) data.
largest (>0.10) Wiberg bond orders for each atom

 ---------------------------------------------------------------------------
     #   Z sym  total        # sym  WBO       # sym  WBO       # sym  WBO
 ---------------------------------------------------------------------------
     1   6 C    3.892 --    17 O    1.744     2 N    1.129    21 C    0.944
     2   7 N    3.542 --     3 C    1.312     1 C    1.129    33 H    0.856
                            17 O    0.104
     3   6 C    3.645 --     2 N    1.312     5 C    1.074    14 C    1.025
     4   6 C    3.901 --    15 C    1.013    34 H    0.962    35 H    0.962
                            12 O    0.924
     5   6 C    3.948 --     3 C    1.074    37 H    0.945     6 C    0.921
                            36 H    0.914
     6   6 C    3.933 --     7 C    1.413    11 C    1.403     5 C    0.921
                             9 C    0.105
     7   6 C    3.968 --     8 C    1.426     6 C    1.413    38 H    0.968
                            10 C    0.102
     8   6 C    3.967 --     9 C    1.429     7 C    1.426    39 H    0.967
                            11 C    0.111
     9   6 C    3.969 --    10 C    1.436     8 C    1.429    40 H    0.965
                             6 C    0.105
    10   6 C    3.968 --     9 C    1.436    11 C    1.433    41 H    0.966
                             7 C    0.102
    11   6 C    3.969 --    10 C    1.433     6 C    1.403    42 H    0.965
                             8 C    0.111
    12   8 O    2.304 --    14 C    1.133     4 C    0.924    13 O    0.183
    13   8 O    1.973 --    14 C    1.684    12 O    0.183
    14   6 C    3.907 --    13 O    1.684    12 O    1.133     3 C    1.025
    15   6 C    3.979 --     4 C    1.013    44 H    0.986    43 H    0.981
                            45 H    0.978
    16   6 C    3.950 --    18 C    1.001    22 N    0.982    46 H    0.962
                            47 H    0.956
    17   8 O    1.995 --     1 C    1.744     2 N    0.104
    18   6 C    3.946 --    16 C    1.001    19 S    0.993    49 H    0.960
                            48 H    0.951
    19  16 S    2.141 --    20 C    0.997    18 C    0.993
    20   6 C    3.944 --    19 S    0.997    21 C    0.986    51 H    0.956
                            50 H    0.950
    21   6 C    3.955 --    20 C    0.986    22 N    0.982     1 C    0.944
                            52 H    0.922
    22   7 N    3.161 --    16 C    0.982    21 C    0.982    23 S    0.876
    23  16 S    4.803 --    31 O    1.564    30 O    1.537    22 N    0.876
                            24 C    0.728
    24   6 C    3.931 --    29 C    1.416    25 C    1.394    23 S    0.728
    25   6 C    3.976 --    26 C    1.453    24 C    1.394    53 H    0.959
                            28 C    0.105
    26   6 C    3.977 --    25 C    1.453    27 C    1.387    54 H    0.960
                            29 C    0.107
    27   6 C    3.975 --    28 C    1.413    26 C    1.387    32 C    1.033
    28   6 C    3.980 --    29 C    1.429    27 C    1.413    55 H    0.965
                            25 C    0.105
    29   6 C    3.983 --    28 C    1.429    24 C    1.416    56 H    0.966
                            26 C    0.107
    30   8 O    1.827 --    23 S    1.537    31 O    0.105
    31   8 O    1.860 --    23 S    1.564    30 O    0.105
    32   6 C    3.985 --    27 C    1.033    57 H    0.980    58 H    0.972
                            59 H    0.955
    33   1 H    0.921 --     2 N    0.856
    34   1 H    0.991 --     4 C    0.962
    35   1 H    0.990 --     4 C    0.962
    36   1 H    0.968 --     5 C    0.914
    37   1 H    0.980 --     5 C    0.945
    38   1 H    0.996 --     7 C    0.968
    39   1 H    0.993 --     8 C    0.967
    40   1 H    0.991 --     9 C    0.965
    41   1 H    0.995 --    10 C    0.966
    42   1 H    0.995 --    11 C    0.965
    43   1 H    0.995 --    15 C    0.981
    44   1 H    0.995 --    15 C    0.986
    45   1 H    0.992 --    15 C    0.978
    46   1 H    0.990 --    16 C    0.962
    47   1 H    0.995 --    16 C    0.956
    48   1 H    0.970 --    18 C    0.951
    49   1 H    0.986 --    18 C    0.960
    50   1 H    0.971 --    20 C    0.950
    51   1 H    0.985 --    20 C    0.956
    52   1 H    0.984 --    21 C    0.922
    53   1 H    0.992 --    25 C    0.959
    54   1 H    0.989 --    26 C    0.960
    55   1 H    0.993 --    28 C    0.965
    56   1 H    0.996 --    29 C    0.966
    57   1 H    0.995 --    32 C    0.980
    58   1 H    0.994 --    32 C    0.972
    59   1 H    0.990 --    32 C    0.955
 ---------------------------------------------------------------------------

Topologies differ in total number of bonds
Writing topology from bond orders to xtbtopo.mol

molecular dipole:
                 x           y           z       tot (Debye)
 q only:       62.559      49.133      81.728
   full:       63.092      48.836      81.485     289.863
molecular quadrupole (traceless):
                xx          xy          yy          xz          yz          zz
 q only:     -667.634    4686.562   -2804.775    7699.414    6036.994    3472.409
  q+dip:     -566.848    4689.361   -2847.824    7741.526    5979.716    3414.672
   full:     -566.649    4689.239   -2848.511    7739.771    5979.774    3415.161


           -------------------------------------------------
          | TOTAL ENERGY              -95.280284757305 Eh   |
          | GRADIENT NORM               0.145133031268 Eh/α |
          | HOMO-LUMO GAP               0.385413310183 eV   |
           -------------------------------------------------
Note: The following floating-point exceptions are signalling: IEEE_UNDERFLOW_FLAG IEEE_DENORMAL
normal termination of xtb

------------------------------------------------------------------------
 * finished run on 2026/01/05 at 09:06:31.213     
------------------------------------------------------------------------
 total:
 * wall-time:     0 d,  0 h,  0 min,  0.256 sec
 *  cpu-time:     0 d,  0 h,  0 min,  3.844 sec
 * ratio c/w:    14.996 speedup
 SCF:
 * wall-time:     0 d,  0 h,  0 min,  0.239 sec
 *  cpu-time:     0 d,  0 h,  0 min,  3.588 sec
 * ratio c/w:    15.025 speedup

