      -----------------------------------------------------------      
     |                   =====================                   |     
     |                           x T B                           |     
     |                   =====================                   |     
     |                         S. Grimme                         |     
     |          Mulliken Center for Theoretical Chemistry        |     
     |                    University of Bonn                     |     
      -----------------------------------------------------------      

   * xtb version 6.7.1 (edcfbbe) compiled by 'conda@c0858423619e' on 2025-09-04

   xtb is free software: you can redistribute it and/or modify it under
   the terms of the GNU Lesser General Public License as published by
   the Free Software Foundation, either version 3 of the License, or
   (at your option) any later version.
   
   xtb is distributed in the hope that it will be useful,
   but WITHOUT ANY WARRANTY; without even the implied warranty of
   MERCHANTABILITY or FITNESS FOR A PARTICULAR PURPOSE.  See the
   GNU Lesser General Public License for more details.
   
   Cite this work as:
   * C. Bannwarth, E. Caldeweyher, S. Ehlert, A. Hansen, P. Pracht,
     J. Seibert, S. Spicher, S. Grimme, WIREs Comput. Mol. Sci., 2020, 11,
     e01493. DOI: 10.1002/wcms.1493
   
   for GFN2-xTB:
   * C. Bannwarth, S. Ehlert and S. Grimme., J. Chem. Theory Comput., 2019,
     15, 1652-1671. DOI: 10.1021/acs.jctc.8b01176
   for GFN1-xTB:
   * S. Grimme, C. Bannwarth, P. Shushkov, J. Chem. Theory Comput., 2017,
     13, 1989-2009. DOI: 10.1021/acs.jctc.7b00118
   for GFN0-xTB:
   * P. Pracht, E. Caldeweyher, S. Ehlert, S. Grimme, ChemRxiv, 2019, preprint.
     DOI: 10.26434/chemrxiv.8326202.v1
   for GFN-FF:
   * S. Spicher and S. Grimme, Angew. Chem. Int. Ed., 2020, 59, 15665-15673.
     DOI: 10.1002/anie.202004239
   
   for ALPB and GBSA implicit solvation:
   * S. Ehlert, M. Stahn, S. Spicher, S. Grimme, J. Chem. Theory Comput.,
     2021, 17, 4250-4261. DOI: 10.1021/acs.jctc.1c00471
   
   for ddCOSMO and CPCM-X implicit solvation:
   * M. Stahn, S. Ehlert, S. Grimme, J. Phys. Chem. A,
     2023, XX, XXXX-XXXX. DOI: 10.1021/acs.jpca.3c04382
   
   for DFT-D4:
   * E. Caldeweyher, C. Bannwarth and S. Grimme, J. Chem. Phys., 2017,
     147, 034112. DOI: 10.1063/1.4993215
   * E. Caldeweyher, S. Ehlert, A. Hansen, H. Neugebauer, S. Spicher,
     C. Bannwarth and S. Grimme, J. Chem. Phys., 2019, 150, 154122.
     DOI: 10.1063/1.5090222
   * E. Caldeweyher, J.-M. Mewes, S. Ehlert and S. Grimme, Phys. Chem. Chem. Phys.
     2020, 22, 8499-8512. DOI: 10.1039/D0CP00502A
   
   for sTDA-xTB:
   * S. Grimme and C. Bannwarth, J. Chem. Phys., 2016, 145, 054103.
     DOI: 10.1063/1.4959605
   
   in the mass-spec context:
   * V. Asgeirsson, C. Bauer and S. Grimme, Chem. Sci., 2017, 8, 4879.
     DOI: 10.1039/c7sc00601b
   * J. Koopman and S. Grimme, ACS Omega 2019, 4, 12, 15120-15133.
     DOI: 10.1021/acsomega.9b02011
   
   for metadynamics refer to:
   * S. Grimme, J. Chem. Theory Comput., 2019, 155, 2847-2862
     DOI: 10.1021/acs.jctc.9b00143
   
   for SPH calculations refer to:
   * S. Spicher and S. Grimme, J. Chem. Theory Comput., 2021, 17, 1701-1714
     DOI: 10.1021/acs.jctc.0c01306
   
   for ONIOM refer to:
   * C. Plett, A. Katbashev, S. Ehlert, S. Grimme, M. Bursch,
     Phys. Chem. Chem. Phys., 2023, 25, 17860-17868. DOI: 10.1039/D3CP02178E
   
   for DIPRO refer to:
   * J. Kohn, N. Gildemeister, S. Grimme, D. Fazzi, A. Hansen,
     J. Chem. Phys., 2023, just accepted.
   
   for PTB refer to:
   * S. Grimme, M. Mueller, A. Hansen, J. Chem. Phys., 2023, 158, 124111.
     DOI: 10.1063/5.0137838
   
   with help from (in alphabetical order)
   P. Atkinson, C. Bannwarth, F. Bohle, G. Brandenburg, E. Caldeweyher
   M. Checinski, S. Dohm, S. Ehlert, S. Ehrlich, I. Gerasimov, C. Hölzer
   A. Katbashev, J. Kohn, J. Koopman, C. Lavigne, S. Lehtola, F. März, M. Müller,
   F. Musil, H. Neugebauer, J. Pisarek, C. Plett, P. Pracht, F. Pultar,
   J. Seibert, P. Shushkov, S. Spicher, M. Stahn, M. Steiner, T. Strunk,
   J. Stückrath, T. Rose, and J. Unsleber
   
 * started run on 2026/01/05 at 09:07:21.567     
   ID    Z sym.   atoms
    1    6 C      1, 3-11, 14-16, 18, 20, 21, 24-29, 32
    2    7 N      2, 22
    3    8 O      12, 13, 17, 30, 31
    4   16 S      19, 23
    5    1 H      33-59

           -------------------------------------------------
          |                Calculation Setup                |
           -------------------------------------------------

          program call               : xtb /home/antonio_mesquita/Documentos/gmx_ISA_project/testes_arquivos_primeiros/gmx_ISA_testes/testes_qm_xtb/QM_analysis/QM_FRAMES_CAPPED/frame_3600ps/ligand_isolated_3600ps.xyz --gfn 2 --alpb water --chrg 1 --etemp 1500 --cycles 1000
          coordinate file            : /home/antonio_mesquita/Documentos/gmx_ISA_project/testes_arquivos_primeiros/gmx_ISA_testes/testes_qm_xtb/QM_analysis/QM_FRAMES_CAPPED/frame_3600ps/ligand_isolated_3600ps.xyz
          omp threads                :                    16


           -------------------------------------------------
          |                 G F N 2 - x T B                 |
           -------------------------------------------------

        Reference                      10.1021/acs.jctc.8b01176
      * Hamiltonian:
        H0-scaling (s, p, d)           1.850000    2.230000    2.230000
        zeta-weighting                 0.500000
      * Dispersion:
        s8                             2.700000
        a1                             0.520000
        a2                             5.000000
        s9                             5.000000
      * Repulsion:
        kExp                           1.500000    1.000000
        rExp                           1.000000
      * Coulomb:
        alpha                          2.000000
        third order                    shell-resolved
        anisotropic                    true
        a3                             3.000000
        a5                             4.000000
        cn-shift                       1.200000
        cn-exp                         4.000000
        max-rad                        5.000000

      * Solvation model:               ALPB
        Solvent                        water
        Parameter file                 internal GFN2-xTB/ALPB
        Dielectric constant                8.0200E+01
        Reference state                gsolv [1 M gas/solution]
        Free energy shift                  1.0808E-03 Eh       6.7819E-01 kcal/mol
        Temperature                        2.9815E+02 K
        Density                            1.0000E+00 kg/L
        Solvent mass                       1.8000E+01 g/mol
        Interaction kernel             P16
        Born radius scaling (c1)           1.4744E+00
        Born radii integrator          GBOBC
        Born offset                        0.0000E+00 a0       0.0000E+00 AA
        H-bond correction              true
        Ion screening                  false
        Surface tension                    1.0000E-05 Eh       1.5569E+01 dyn/cm
        Grid points                               230 per atom

          ...................................................
          :                      SETUP                      :
          :.................................................:
          :  # basis functions                 167          :
          :  # atomic orbitals                 165          :
          :  # shells                           93          :
          :  # electrons                       170          :
          :  max. iterations                   250          :
          :  Hamiltonian                  GFN2-xTB          :
          :  restarted?                      false          :
          :  GBSA solvation                   true          :
          :  PC potential                    false          :
          :  electronic temp.         1500.0000000     K    :
          :  accuracy                    1.0000000          :
          :  -> integral cutoff          0.2500000E+02      :
          :  -> integral neglect         0.1000000E-07      :
          :  -> SCF convergence          0.1000000E-05 Eh   :
          :  -> wf. convergence          0.1000000E-03 e    :
          :  Broyden damping             0.4000000          :
          :  net charge                          1          :
          :  unpaired electrons                  0          :
          ...................................................

 iter      E             dE          RMSdq      gap      omega  full diag
   1    -96.2245888 -0.962246E+02  0.490E+00    0.87       0.0  T
   2    -96.2270359 -0.244709E-02  0.368E+00    0.33       1.0  T
   3    -96.3088862 -0.818503E-01  0.267E+00    1.60       1.0  T
   4    -96.4019881 -0.931018E-01  0.142E+00    0.65       1.0  T
   5    -96.3806758  0.213122E-01  0.120E+00    1.03       1.0  T
   6    -96.4247630 -0.440872E-01  0.331E-01    0.43       1.0  T
   7    -96.4256706 -0.907603E-03  0.174E-01    0.32       1.0  T
   8    -96.4260295 -0.358831E-03  0.937E-02    0.39       1.0  T
   9    -96.4261466 -0.117186E-03  0.385E-02    0.35       1.0  T
  10    -96.4261537 -0.700740E-05  0.344E-02    0.38       1.0  T
  11    -96.4261752 -0.215258E-04  0.127E-02    0.36       1.0  T
  12    -96.4261788 -0.363995E-05  0.264E-03    0.37       4.9  T
  13    -96.4261789 -0.420187E-07  0.203E-03    0.37       6.4  T
  14    -96.4261789 -0.417886E-07  0.126E-03    0.37      10.3  T
  15    -96.4261789 -0.152596E-07  0.101E-03    0.37      12.9  T
  16    -96.4261789 -0.248302E-07  0.169E-04    0.37      77.1  T
  17    -96.4261789 -0.156362E-09  0.100E-04    0.37     130.1  T

   *** convergence criteria satisfied after 17 iterations ***

         #    Occupation            Energy/Eh            Energy/eV
      -------------------------------------------------------------
         1        2.0000           -0.7995755             -21.7576
       ...           ...                  ...                  ...
        79        1.9995           -0.4342441             -11.8164
        80        1.9942           -0.4222619             -11.4903
        81        1.9903           -0.4198485             -11.4247
        82        1.9900           -0.4196646             -11.4197
        83        1.9822           -0.4169160             -11.3449
        84        1.9760           -0.4154934             -11.3062
        85        1.6422           -0.4017736             -10.9328 (HOMO)
        86        0.4263           -0.3883305             -10.5670 (LUMO)
        87                         -0.2814497              -7.6586
        88                         -0.2625903              -7.1454
        89                         -0.2514434              -6.8421
        90                         -0.2511965              -6.8354
       ...                                ...                  ...
       165                          1.0617977              28.8930
      -------------------------------------------------------------
                  HL-Gap            0.0134432 Eh            0.3658 eV
             Fermi-level           -0.3945349 Eh          -10.7358 eV

 SCC (total)                   0 d,  0 h,  0 min,  0.237 sec
 SCC setup                      ...        0 min,  0.002 sec (  0.640%)
 Dispersion                     ...        0 min,  0.001 sec (  0.596%)
 classical contributions        ...        0 min,  0.000 sec (  0.093%)
 integral evaluation            ...        0 min,  0.013 sec (  5.438%)
 iterations                     ...        0 min,  0.171 sec ( 72.242%)
 molecular gradient             ...        0 min,  0.049 sec ( 20.545%)
 printout                       ...        0 min,  0.001 sec (  0.437%)

         :::::::::::::::::::::::::::::::::::::::::::::::::::::
         ::                     SUMMARY                     ::
         :::::::::::::::::::::::::::::::::::::::::::::::::::::
         :: total energy             -95.283918022041 Eh    ::
         :: total w/o Gsasa/hb       -95.280070262498 Eh    ::
         :: gradient norm              0.149715199554 Eh/a0 ::
         :: HOMO-LUMO gap              0.365807777327 eV    ::
         ::.................................................::
         :: SCC energy               -96.425235937130 Eh    ::
         :: -> isotropic ES            0.248611754924 Eh    ::
         :: -> anisotropic ES         -0.025541678271 Eh    ::
         :: -> anisotropic XC          0.040549892562 Eh    ::
         :: -> dispersion             -0.069295064144 Eh    ::
         :: -> Gsolv                  -0.099223140731 Eh    ::
         ::    -> Gelec               -0.095375381189 Eh    ::
         ::    -> Gsasa                0.003384394387 Eh    ::
         ::    -> Ghb                 -0.008312913628 Eh    ::
         ::    -> Gshift               0.001080759698 Eh    ::
         :: repulsion energy           1.141317915089 Eh    ::
         :: add. restraining           0.000000000000 Eh    ::
         :: total charge               1.000000000000 e     ::
         :::::::::::::::::::::::::::::::::::::::::::::::::::::

           -------------------------------------------------
          |                Property Printout                |
           -------------------------------------------------

    * Orbital Energies and Occupations

         #    Occupation            Energy/Eh            Energy/eV
      -------------------------------------------------------------
         1        2.0000           -0.7995755             -21.7576
       ...           ...                  ...                  ...
        73        2.0000           -0.4611359             -12.5481
        74        2.0000           -0.4537873             -12.3482
        75        1.9999           -0.4425751             -12.0431
        76        1.9999           -0.4411279             -12.0037
        77        1.9999           -0.4404890             -11.9863
        78        1.9996           -0.4350538             -11.8384
        79        1.9995           -0.4342441             -11.8164
        80        1.9942           -0.4222619             -11.4903
        81        1.9903           -0.4198485             -11.4247
        82        1.9900           -0.4196646             -11.4197
        83        1.9822           -0.4169160             -11.3449
        84        1.9760           -0.4154934             -11.3062
        85        1.6422           -0.4017736             -10.9328 (HOMO)
        86        0.4263           -0.3883305             -10.5670 (LUMO)
        87                         -0.2814497              -7.6586
        88                         -0.2625903              -7.1454
        89                         -0.2514434              -6.8421
        90                         -0.2511965              -6.8354
        91                         -0.2444822              -6.6527
        92                         -0.2419697              -6.5843
        93                         -0.2328174              -6.3353
        94                         -0.1799981              -4.8980
        95                         -0.1741778              -4.7396
        96                         -0.1504087              -4.0928
       ...                                ...                  ...
       165                          1.0617977              28.8930
      -------------------------------------------------------------
                  HL-Gap            0.0134432 Eh            0.3658 eV
             Fermi-level           -0.3945349 Eh          -10.7358 eV

     #   Z          covCN         q      C6AA      α(0)
     1   6 C        2.742     0.280    22.257     7.725
     2   7 N        2.691    -0.076    22.728     7.080
     3   6 C        2.875     0.095    25.883     8.340
     4   6 C        3.693     0.068    19.605     6.335
     5   6 C        3.805    -0.077    21.960     6.671
     6   6 C        2.957     0.033    27.250     8.562
     7   6 C        2.928    -0.033    28.811     8.803
     8   6 C        2.901    -0.032    28.786     8.797
     9   6 C        2.919    -0.027    28.667     8.780
    10   6 C        2.901    -0.030    28.739     8.790
    11   6 C        2.923    -0.033    28.817     8.803
    12   8 O        1.705    -0.249    18.133     5.749
    13   8 O        0.856    -0.414    21.963     6.283
    14   6 C        2.715     0.351    21.033     7.507
    15   6 C        3.746    -0.134    23.158     6.864
    16   6 C        3.837    -0.000    20.562     6.451
    17   8 O        0.862    -0.410    21.881     6.272
    18   6 C        3.788    -0.051    21.501     6.604
    19  16 S        1.984     0.024   140.076    19.920
    20   6 C        3.793    -0.065    21.752     6.642
    21   6 C        3.865     0.026    20.092     6.374
    22   7 N        2.730    -0.252    26.539     7.651
    23  16 S        3.796     1.147   102.525    17.042
    24   6 C        2.950    -0.084    30.107     9.000
    25   6 C        2.960    -0.034    28.843     8.809
    26   6 C        2.912    -0.041    29.008     8.832
    27   6 C        2.961     0.032    27.274     8.566
    28   6 C        2.918    -0.041    29.011     8.833
    29   6 C        2.935    -0.028    28.707     8.787
    30   8 O        0.860    -0.643    27.199     6.992
    31   8 O        0.860    -0.645    27.250     6.999
    32   6 C        3.752    -0.138    23.226     6.873
    33   1 H        0.860     0.268     0.818     1.417
    34   1 H        0.924     0.080     1.980     2.201
    35   1 H        0.924     0.076     2.024     2.225
    36   1 H        0.924     0.127     1.556     1.951
    37   1 H        0.924     0.135     1.497     1.913
    38   1 H        0.925     0.050     2.324     2.384
    39   1 H        0.925     0.058     2.226     2.333
    40   1 H        0.924     0.053     2.280     2.362
    41   1 H        0.925     0.071     2.076     2.253
    42   1 H        0.924     0.060     2.199     2.319
    43   1 H        0.924     0.070     2.089     2.260
    44   1 H        0.924     0.064     2.154     2.295
    45   1 H        0.923     0.065     2.142     2.289
    46   1 H        0.924     0.059     2.206     2.322
    47   1 H        0.924     0.083     1.944     2.180
    48   1 H        0.923     0.117     1.639     2.002
    49   1 H        0.924     0.111     1.685     2.030
    50   1 H        0.924     0.140     1.460     1.889
    51   1 H        0.924     0.126     1.563     1.955
    52   1 H        0.923     0.136     1.493     1.911
    53   1 H        0.925     0.081     1.970     2.195
    54   1 H        0.926     0.091     1.865     2.136
    55   1 H        0.924     0.074     2.047     2.238
    56   1 H        0.925     0.056     2.245     2.343
    57   1 H        0.923     0.070     2.091     2.261
    58   1 H        0.925     0.078     1.998     2.211
    59   1 H        0.924     0.079     1.993     2.208

 Mol. C6AA /au·bohr⁶  :      43355.467786
 Mol. C8AA /au·bohr⁸  :    1117064.744594
 Mol. α(0) /au        :        323.818683


Wiberg/Mayer (AO) data.
largest (>0.10) Wiberg bond orders for each atom

 ---------------------------------------------------------------------------
     #   Z sym  total        # sym  WBO       # sym  WBO       # sym  WBO
 ---------------------------------------------------------------------------
     1   6 C    3.892 --    17 O    1.726     2 N    1.131    21 C    0.949
     2   7 N    3.547 --     3 C    1.294     1 C    1.131    33 H    0.874
                            17 O    0.105
     3   6 C    3.635 --     2 N    1.294     5 C    1.060    14 C    1.025
     4   6 C    3.902 --    15 C    1.015    35 H    0.963    34 H    0.958
                            12 O    0.927
     5   6 C    3.944 --     3 C    1.060    36 H    0.945     6 C    0.937
                            37 H    0.910
     6   6 C    3.942 --    11 C    1.401     7 C    1.396     5 C    0.937
     7   6 C    3.969 --     8 C    1.437     6 C    1.396    38 H    0.967
                            10 C    0.107
     8   6 C    3.974 --     7 C    1.437     9 C    1.430    39 H    0.967
                            11 C    0.105
     9   6 C    3.968 --     8 C    1.430    10 C    1.427    40 H    0.968
    10   6 C    3.967 --    11 C    1.433     9 C    1.427    41 H    0.964
                             7 C    0.107
    11   6 C    3.971 --    10 C    1.433     6 C    1.401    42 H    0.966
                             8 C    0.105
    12   8 O    2.288 --    14 C    1.118     4 C    0.927    13 O    0.180
    13   8 O    1.979 --    14 C    1.691    12 O    0.180
    14   6 C    3.901 --    13 O    1.691    12 O    1.118     3 C    1.025
    15   6 C    3.983 --     4 C    1.015    44 H    0.984    43 H    0.984
                            45 H    0.982
    16   6 C    3.945 --    18 C    0.999    22 N    0.982    46 H    0.964
                            47 H    0.957
    17   8 O    1.995 --     1 C    1.726     2 N    0.105
    18   6 C    3.947 --    16 C    0.999    19 S    0.994    49 H    0.962
                            48 H    0.952
    19  16 S    2.093 --    20 C    1.001    18 C    0.994
    20   6 C    3.947 --    19 S    1.001    21 C    0.986    51 H    0.950
                            50 H    0.946
    21   6 C    3.950 --    22 N    0.989    20 C    0.986     1 C    0.949
                            52 H    0.900
    22   7 N    3.188 --    21 C    0.989    16 C    0.982    23 S    0.887
    23  16 S    4.825 --    31 O    1.559    30 O    1.556    22 N    0.887
                            24 C    0.726
    24   6 C    3.936 --    25 C    1.408    29 C    1.407    23 S    0.726
    25   6 C    3.977 --    26 C    1.445    24 C    1.408    53 H    0.960
                            28 C    0.104
    26   6 C    3.976 --    25 C    1.445    27 C    1.396    54 H    0.960
                            29 C    0.105
    27   6 C    3.970 --    28 C    1.399    26 C    1.396    32 C    1.030
    28   6 C    3.975 --    29 C    1.445    27 C    1.399    55 H    0.964
                            25 C    0.104
    29   6 C    3.983 --    28 C    1.445    24 C    1.407    56 H    0.966
                            26 C    0.105
    30   8 O    1.857 --    23 S    1.556    31 O    0.102
    31   8 O    1.846 --    23 S    1.559    30 O    0.102
    32   6 C    3.985 --    27 C    1.030    57 H    0.983    58 H    0.966
                            59 H    0.960
    33   1 H    0.925 --     2 N    0.874
    34   1 H    0.989 --     4 C    0.958
    35   1 H    0.991 --     4 C    0.963
    36   1 H    0.983 --     5 C    0.945
    37   1 H    0.967 --     5 C    0.910
    38   1 H    0.997 --     7 C    0.967
    39   1 H    0.994 --     8 C    0.967
    40   1 H    0.994 --     9 C    0.968
    41   1 H    0.993 --    10 C    0.964
    42   1 H    0.995 --    11 C    0.966
    43   1 H    0.995 --    15 C    0.984
    44   1 H    0.995 --    15 C    0.984
    45   1 H    0.995 --    15 C    0.982
    46   1 H    0.987 --    16 C    0.964
    47   1 H    0.993 --    16 C    0.957
    48   1 H    0.970 --    18 C    0.952
    49   1 H    0.987 --    18 C    0.962
    50   1 H    0.970 --    20 C    0.946
    51   1 H    0.983 --    20 C    0.950
    52   1 H    0.979 --    21 C    0.900
    53   1 H    0.993 --    25 C    0.960
    54   1 H    0.990 --    26 C    0.960
    55   1 H    0.993 --    28 C    0.964
    56   1 H    0.996 --    29 C    0.966
    57   1 H    0.995 --    32 C    0.983
    58   1 H    0.992 --    32 C    0.966
    59   1 H    0.992 --    32 C    0.960
 ---------------------------------------------------------------------------

Topologies differ in total number of bonds
Writing topology from bond orders to xtbtopo.mol

molecular dipole:
                 x           y           z       tot (Debye)
 q only:       39.952      11.265     108.469
   full:       40.220      10.732     108.386     295.110
molecular quadrupole (traceless):
                xx          xy          yy          xz          yz          zz
 q only:    -4321.037     724.803   -6605.677    6569.672    1859.000   10926.713
  q+dip:    -4290.727     695.650   -6610.137    6603.175    1770.958   10900.864
   full:    -4288.723     696.478   -6611.642    6601.723    1769.853   10900.365


           -------------------------------------------------
          | TOTAL ENERGY              -95.283918022041 Eh   |
          | GRADIENT NORM               0.149715199554 Eh/α |
          | HOMO-LUMO GAP               0.365807777327 eV   |
Note: The following floating-point exceptions are signalling: IEEE_UNDERFLOW_FLAG IEEE_DENORMAL
normal termination of xtb
           -------------------------------------------------

------------------------------------------------------------------------
 * finished run on 2026/01/05 at 09:07:21.826     
------------------------------------------------------------------------
 total:
 * wall-time:     0 d,  0 h,  0 min,  0.259 sec
 *  cpu-time:     0 d,  0 h,  0 min,  3.885 sec
 * ratio c/w:    15.007 speedup
 SCF:
 * wall-time:     0 d,  0 h,  0 min,  0.237 sec
 *  cpu-time:     0 d,  0 h,  0 min,  3.576 sec
 * ratio c/w:    15.085 speedup

