      -----------------------------------------------------------      
     |                   =====================                   |     
     |                           x T B                           |     
     |                   =====================                   |     
     |                         S. Grimme                         |     
     |          Mulliken Center for Theoretical Chemistry        |     
     |                    University of Bonn                     |     
      -----------------------------------------------------------      

   * xtb version 6.7.1 (edcfbbe) compiled by 'conda@c0858423619e' on 2025-09-04

   xtb is free software: you can redistribute it and/or modify it under
   the terms of the GNU Lesser General Public License as published by
   the Free Software Foundation, either version 3 of the License, or
   (at your option) any later version.
   
   xtb is distributed in the hope that it will be useful,
   but WITHOUT ANY WARRANTY; without even the implied warranty of
   MERCHANTABILITY or FITNESS FOR A PARTICULAR PURPOSE.  See the
   GNU Lesser General Public License for more details.
   
   Cite this work as:
   * C. Bannwarth, E. Caldeweyher, S. Ehlert, A. Hansen, P. Pracht,
     J. Seibert, S. Spicher, S. Grimme, WIREs Comput. Mol. Sci., 2020, 11,
     e01493. DOI: 10.1002/wcms.1493
   
   for GFN2-xTB:
   * C. Bannwarth, S. Ehlert and S. Grimme., J. Chem. Theory Comput., 2019,
     15, 1652-1671. DOI: 10.1021/acs.jctc.8b01176
   for GFN1-xTB:
   * S. Grimme, C. Bannwarth, P. Shushkov, J. Chem. Theory Comput., 2017,
     13, 1989-2009. DOI: 10.1021/acs.jctc.7b00118
   for GFN0-xTB:
   * P. Pracht, E. Caldeweyher, S. Ehlert, S. Grimme, ChemRxiv, 2019, preprint.
     DOI: 10.26434/chemrxiv.8326202.v1
   for GFN-FF:
   * S. Spicher and S. Grimme, Angew. Chem. Int. Ed., 2020, 59, 15665-15673.
     DOI: 10.1002/anie.202004239
   
   for ALPB and GBSA implicit solvation:
   * S. Ehlert, M. Stahn, S. Spicher, S. Grimme, J. Chem. Theory Comput.,
     2021, 17, 4250-4261. DOI: 10.1021/acs.jctc.1c00471
   
   for ddCOSMO and CPCM-X implicit solvation:
   * M. Stahn, S. Ehlert, S. Grimme, J. Phys. Chem. A,
     2023, XX, XXXX-XXXX. DOI: 10.1021/acs.jpca.3c04382
   
   for DFT-D4:
   * E. Caldeweyher, C. Bannwarth and S. Grimme, J. Chem. Phys., 2017,
     147, 034112. DOI: 10.1063/1.4993215
   * E. Caldeweyher, S. Ehlert, A. Hansen, H. Neugebauer, S. Spicher,
     C. Bannwarth and S. Grimme, J. Chem. Phys., 2019, 150, 154122.
     DOI: 10.1063/1.5090222
   * E. Caldeweyher, J.-M. Mewes, S. Ehlert and S. Grimme, Phys. Chem. Chem. Phys.
     2020, 22, 8499-8512. DOI: 10.1039/D0CP00502A
   
   for sTDA-xTB:
   * S. Grimme and C. Bannwarth, J. Chem. Phys., 2016, 145, 054103.
     DOI: 10.1063/1.4959605
   
   in the mass-spec context:
   * V. Asgeirsson, C. Bauer and S. Grimme, Chem. Sci., 2017, 8, 4879.
     DOI: 10.1039/c7sc00601b
   * J. Koopman and S. Grimme, ACS Omega 2019, 4, 12, 15120-15133.
     DOI: 10.1021/acsomega.9b02011
   
   for metadynamics refer to:
   * S. Grimme, J. Chem. Theory Comput., 2019, 155, 2847-2862
     DOI: 10.1021/acs.jctc.9b00143
   
   for SPH calculations refer to:
   * S. Spicher and S. Grimme, J. Chem. Theory Comput., 2021, 17, 1701-1714
     DOI: 10.1021/acs.jctc.0c01306
   
   for ONIOM refer to:
   * C. Plett, A. Katbashev, S. Ehlert, S. Grimme, M. Bursch,
     Phys. Chem. Chem. Phys., 2023, 25, 17860-17868. DOI: 10.1039/D3CP02178E
   
   for DIPRO refer to:
   * J. Kohn, N. Gildemeister, S. Grimme, D. Fazzi, A. Hansen,
     J. Chem. Phys., 2023, just accepted.
   
   for PTB refer to:
   * S. Grimme, M. Mueller, A. Hansen, J. Chem. Phys., 2023, 158, 124111.
     DOI: 10.1063/5.0137838
   
   with help from (in alphabetical order)
   P. Atkinson, C. Bannwarth, F. Bohle, G. Brandenburg, E. Caldeweyher
   M. Checinski, S. Dohm, S. Ehlert, S. Ehrlich, I. Gerasimov, C. Hölzer
   A. Katbashev, J. Kohn, J. Koopman, C. Lavigne, S. Lehtola, F. März, M. Müller,
   F. Musil, H. Neugebauer, J. Pisarek, C. Plett, P. Pracht, F. Pultar,
   J. Seibert, P. Shushkov, S. Spicher, M. Stahn, M. Steiner, T. Strunk,
   J. Stückrath, T. Rose, and J. Unsleber
   
 * started run on 2026/01/05 at 09:06:19.253     
   ID    Z sym.   atoms
    1    7 N      1, 22, 42, 54, 67, 70, 73, 78, 98, 110, 115, 130, 146, 167,
                  175, 178, 184
    2    1 H      2, 4, 6, 7, 10, 12, 15, 17, 19, 23, 25, 27, 28, 31, 33, 35,
                  37, 39, 43, 45, 47, 48, 55, 57, 59, 60, 62, 63, 65, 66, 68,
                  71, 72, 74, 75, 79, 81, 83, 84, 87, 89, 91, 93, 95, 99,
                  101, 103, 104, 106, 107, 111, 112, 116, 118, 120, 121, 123,
                  124, 131, 133, 135, 137-139, 141-143, 147, 149, 151, 152,
                  155, 157, 160, 162, 164, 168, 170, 172, 173, 177, 179, 181,
                  185, 187, 189, 191-193, 195, 196, 198-200, 203-218
    3    6 C      3, 5, 8, 9, 11, 13, 16, 18, 20, 24, 26, 29, 30, 32, 34, 36,
                  38, 40, 44, 46, 49, 52, 56, 58, 61, 64, 69, 76, 80, 82, 85,
                  86, 88, 90, 92, 94, 96, 100, 102, 105, 108, 113, 117, 119,
                  122, 125, 128, 132, 134, 136, 140, 144, 148, 150, 153, 154,
                  156, 158, 161, 163, 165, 169, 171, 174, 176, 180, 182, 186,
                  188, 190, 194, 197, 201
    4    8 O      14, 21, 41, 50, 51, 53, 77, 97, 109, 114, 126, 127, 129,
                  145, 159, 166, 183, 202

           -------------------------------------------------
          |                Calculation Setup                |
           -------------------------------------------------

          program call               : xtb /home/antonio_mesquita/Documentos/gmx_ISA_project/testes_arquivos_primeiros/gmx_ISA_testes/testes_qm_xtb/QM_analysis/QM_FRAMES_CAPPED/frame_1000ps/residues_pocket_capped_1000ps.xyz --gfn 2 --alpb water --chrg -1 --etemp 1500 --cycles 1000
          coordinate file            : /home/antonio_mesquita/Documentos/gmx_ISA_project/testes_arquivos_primeiros/gmx_ISA_testes/testes_qm_xtb/QM_analysis/QM_FRAMES_CAPPED/frame_1000ps/residues_pocket_capped_1000ps.xyz
          omp threads                :                    16


molecular fragmentation (1/2 indicates fragments):
111111111111111111111222222222222222222222222222222222222222222222222222
222222222222222222222222222222222222222222222222222222222222222222222222
222222222222222222222222222222222222222222222222222222222211222222222222
22
# atoms in fragment 1/2:    23   195
 fragment masses (1/2) :      165.19     1348.57
CMA distance (Bohr)    :  14.879
constraining FC (au)   :  0.0500

           -------------------------------------------------
          |                 G F N 2 - x T B                 |
           -------------------------------------------------

        Reference                      10.1021/acs.jctc.8b01176
      * Hamiltonian:
        H0-scaling (s, p, d)           1.850000    2.230000    2.230000
        zeta-weighting                 0.500000
      * Dispersion:
        s8                             2.700000
        a1                             0.520000
        a2                             5.000000
        s9                             5.000000
      * Repulsion:
        kExp                           1.500000    1.000000
        rExp                           1.000000
      * Coulomb:
        alpha                          2.000000
        third order                    shell-resolved
        anisotropic                    true
        a3                             3.000000
        a5                             4.000000
        cn-shift                       1.200000
        cn-exp                         4.000000
        max-rad                        5.000000

      * Solvation model:               ALPB
        Solvent                        water
        Parameter file                 internal GFN2-xTB/ALPB
        Dielectric constant                8.0200E+01
        Reference state                gsolv [1 M gas/solution]
        Free energy shift                  1.0808E-03 Eh       6.7819E-01 kcal/mol
        Temperature                        2.9815E+02 K
        Density                            1.0000E+00 kg/L
        Solvent mass                       1.8000E+01 g/mol
        Interaction kernel             P16
        Born radius scaling (c1)           1.4744E+00
        Born radii integrator          GBOBC
        Born offset                        0.0000E+00 a0       0.0000E+00 AA
        H-bond correction              true
        Ion screening                  false
        Surface tension                    1.0000E-05 Eh       1.5569E+01 dyn/cm
        Grid points                               230 per atom

          ...................................................
          :                      SETUP                      :
          :.................................................:
          :  # basis functions                 542          :
          :  # atomic orbitals                 542          :
          :  # shells                          326          :
          :  # electrons                       596          :
          :  max. iterations                   250          :
          :  Hamiltonian                  GFN2-xTB          :
          :  restarted?                      false          :
          :  GBSA solvation                   true          :
          :  PC potential                    false          :
          :  electronic temp.         1500.0000000     K    :
          :  accuracy                    1.0000000          :
          :  -> integral cutoff          0.2500000E+02      :
          :  -> integral neglect         0.1000000E-07      :
          :  -> SCF convergence          0.1000000E-05 Eh   :
          :  -> wf. convergence          0.1000000E-03 e    :
          :  Broyden damping             0.4000000          :
          :  net charge                         -1          :
          :  unpaired electrons                  0          :
          ...................................................

 iter      E             dE          RMSdq      gap      omega  full diag
   1   -338.7335488 -0.338734E+03  0.455E+00    1.79       0.0  T
   2   -339.3906370 -0.657088E+00  0.234E+00    1.15       1.0  T
   3   -339.4111819 -0.205449E-01  0.128E+00    1.71       1.0  T
   4   -339.4554180 -0.442362E-01  0.265E-01    1.23       1.0  T
   5   -339.4623246 -0.690657E-02  0.111E-01    1.32       1.0  T
   6   -339.4626465 -0.321931E-03  0.614E-02    1.30       1.0  T
   7   -339.4628351 -0.188512E-03  0.240E-02    1.30       1.0  T
   8   -339.4628558 -0.207368E-04  0.929E-03    1.30       1.0  T
   9   -339.4628596 -0.375928E-05  0.459E-03    1.30       1.5  T
  10   -339.4628605 -0.940298E-06  0.218E-03    1.30       3.1  T
  11   -339.4628607 -0.195435E-06  0.966E-04    1.29       7.0  T
  12   -339.4628607 -0.569782E-07  0.426E-04    1.29      15.9  T

   *** convergence criteria satisfied after 12 iterations ***

         #    Occupation            Energy/Eh            Energy/eV
      -------------------------------------------------------------
         1        2.0000           -0.7381845             -20.0870
       ...           ...                  ...                  ...
       292        1.9966           -0.3468980              -9.4396
       293        1.9959           -0.3460123              -9.4155
       294        1.9956           -0.3457011              -9.4070
       295        1.9953           -0.3453698              -9.3980
       296        1.9936           -0.3438750              -9.3573
       297        1.9909           -0.3421943              -9.3116
       298        1.9909           -0.3421882              -9.3114 (HOMO)
       299        0.0192           -0.2945988              -8.0164 (LUMO)
       300        0.0104           -0.2916529              -7.9363
       301        0.0087           -0.2908007              -7.9131
       302        0.0012           -0.2815421              -7.6611
       303        0.0012           -0.2812555              -7.6534
       ...           ...                  ...                  ...
       542                          0.6349797              17.2787
      -------------------------------------------------------------
                  HL-Gap            0.0475894 Eh            1.2950 eV
             Fermi-level           -0.3166101 Eh           -8.6154 eV

 SCC (total)                   0 d,  0 h,  0 min,  1.362 sec
 SCC setup                      ...        0 min,  0.012 sec (  0.871%)
 Dispersion                     ...        0 min,  0.020 sec (  1.484%)
 classical contributions        ...        0 min,  0.003 sec (  0.196%)
 integral evaluation            ...        0 min,  0.064 sec (  4.683%)
 iterations                     ...        0 min,  1.083 sec ( 79.521%)
 molecular gradient             ...        0 min,  0.177 sec ( 12.969%)
 printout                       ...        0 min,  0.004 sec (  0.273%)

         :::::::::::::::::::::::::::::::::::::::::::::::::::::
         ::                     SUMMARY                     ::
         :::::::::::::::::::::::::::::::::::::::::::::::::::::
         :: total energy            -335.288826468561 Eh    ::
         :: total w/o Gsasa/hb      -335.247711312657 Eh    ::
         :: gradient norm              0.293573829194 Eh/a0 ::
         :: HOMO-LUMO gap              1.294972973873 eV    ::
         ::.................................................::
         :: SCC energy              -339.457539796215 Eh    ::
         :: -> isotropic ES            1.022170657690 Eh    ::
         :: -> anisotropic ES          0.021596535538 Eh    ::
         :: -> anisotropic XC          0.143669369601 Eh    ::
         :: -> dispersion             -0.214959744285 Eh    ::
         :: -> Gsolv                  -0.289621922605 Eh    ::
         ::    -> Gelec               -0.248506766701 Eh    ::
         ::    -> Gsasa                0.009268805075 Eh    ::
         ::    -> Ghb                 -0.051464720678 Eh    ::
         ::    -> Gshift               0.001080759698 Eh    ::
         :: repulsion energy           4.168713327654 Eh    ::
         :: add. restraining           0.000000000000 Eh    ::
         :: total charge              -1.000000000000 e     ::
         :::::::::::::::::::::::::::::::::::::::::::::::::::::

           -------------------------------------------------
          |                Property Printout                |
           -------------------------------------------------

    * Orbital Energies and Occupations

         #    Occupation            Energy/Eh            Energy/eV
      -------------------------------------------------------------
         1        2.0000           -0.7381845             -20.0870
       ...           ...                  ...                  ...
       286        2.0000           -0.3759551             -10.2303
       287        2.0000           -0.3693782             -10.0513
       288        2.0000           -0.3690238             -10.0416
       289        2.0000           -0.3682910             -10.0217
       290        1.9997           -0.3577817              -9.7357
       291        1.9991           -0.3532498              -9.6124
       292        1.9966           -0.3468980              -9.4396
       293        1.9959           -0.3460123              -9.4155
       294        1.9956           -0.3457011              -9.4070
       295        1.9953           -0.3453698              -9.3980
       296        1.9936           -0.3438750              -9.3573
       297        1.9909           -0.3421943              -9.3116
       298        1.9909           -0.3421882              -9.3114 (HOMO)
       299        0.0192           -0.2945988              -8.0164 (LUMO)
       300        0.0104           -0.2916529              -7.9363
       301        0.0087           -0.2908007              -7.9131
       302        0.0012           -0.2815421              -7.6611
       303        0.0012           -0.2812555              -7.6534
       304        0.0012           -0.2812079              -7.6521
       305        0.0004           -0.2761028              -7.5131
       306        0.0002           -0.2736783              -7.4472
       307                         -0.2301060              -6.2615
       308                         -0.2280007              -6.2042
       309                         -0.2272179              -6.1829
       ...                                ...                  ...
       542                          0.6349797              17.2787
      -------------------------------------------------------------
                  HL-Gap            0.0475894 Eh            1.2950 eV
             Fermi-level           -0.3166101 Eh           -8.6154 eV

     #   Z          covCN         q      C6AA      α(0)
     1   7 N        2.630    -0.371    29.569     8.076
     2   1 H        0.860     0.170     1.271     1.766
     3   6 C        3.783     0.034    20.013     6.372
     4   1 H        0.925     0.086     1.921     2.167
     5   6 C        3.834    -0.080    22.005     6.674
     6   1 H        0.925     0.072     2.068     2.249
     7   1 H        0.925     0.054     2.267     2.355
     8   6 C        2.963    -0.004    28.124     8.699
     9   6 C        2.911    -0.047    29.168     8.856
    10   1 H        0.925     0.031     2.570     2.507
    11   6 C        2.907    -0.071    29.771     8.947
    12   1 H        0.926     0.020     2.728     2.583
    13   6 C        2.839     0.135    25.051     8.202
    14   8 O        1.660    -0.437    21.587     6.272
    15   1 H        0.806     0.337     0.619     1.236
    16   6 C        2.906    -0.068    29.695     8.935
    17   1 H        0.925     0.054     2.269     2.356
    18   6 C        2.914    -0.042    29.044     8.837
    19   1 H        0.926     0.055     2.254     2.348
    20   6 C        2.780     0.209    23.573     7.952
    21   8 O        0.856    -0.396    21.594     6.230
    22   7 N        2.630    -0.370    29.563     8.075
    23   1 H        0.860     0.165     1.304     1.789
    24   6 C        3.788     0.028    20.110     6.387
    25   1 H        0.926     0.062     2.177     2.307
    26   6 C        3.814    -0.072    21.858     6.654
    27   1 H        0.925     0.061     2.182     2.310
    28   1 H        0.925     0.051     2.303     2.373
    29   6 C        2.981     0.012    27.749     8.641
    30   6 C        2.913    -0.042    29.039     8.836
    31   1 H        0.926     0.053     2.286     2.364
    32   6 C        2.911    -0.038    28.950     8.823
    33   1 H        0.926     0.048     2.347     2.396
    34   6 C        2.911    -0.041    29.030     8.835
    35   1 H        0.925     0.038     2.480     2.463
    36   6 C        2.925    -0.034    28.856     8.809
    37   1 H        0.926     0.024     2.676     2.558
    38   6 C        2.904    -0.043    29.069     8.840
    39   1 H        0.926     0.029     2.598     2.521
    40   6 C        2.760     0.262    22.577     7.781
    41   8 O        0.860    -0.532    24.504     6.637
    42   7 N        2.693    -0.170    24.684     7.379
    43   1 H        0.860     0.211     1.052     1.607
    44   6 C        3.801     0.038    19.944     6.358
    45   1 H        0.925     0.092     1.861     2.133
    46   6 C        3.816    -0.079    21.989     6.674
    47   1 H        0.924     0.040     2.450     2.448
    48   1 H        0.924     0.060     2.194     2.317
    49   6 C        2.688     0.360    20.885     7.479
    50   8 O        0.858    -0.630    26.863     6.949
    51   8 O        0.856    -0.591    25.905     6.824
    52   6 C        2.762     0.208    23.587     7.953
    53   8 O        0.856    -0.368    21.060     6.153
    54   7 N        2.634    -0.383    29.898     8.121
    55   1 H        0.860     0.173     1.254     1.754
    56   6 C        3.784     0.041    19.901     6.354
    57   1 H        0.924     0.087     1.910     2.161
    58   6 C        3.805    -0.071    21.851     6.655
    59   1 H        0.924     0.056     2.245     2.343
    60   1 H        0.925     0.068     2.109     2.271
    61   6 C        3.799    -0.071    21.852     6.656
    62   1 H        0.925     0.070     2.090     2.261
    63   1 H        0.925     0.055     2.259     2.350
    64   6 C        3.735    -0.019    20.993     6.539
    65   1 H        0.924     0.075     2.033     2.230
    66   1 H        0.924     0.082     1.960     2.190
    67   7 N        2.686    -0.156    24.377     7.333
    68   1 H        0.861     0.232     0.957     1.532
    69   6 C        2.733     0.237    23.040     7.859
    70   7 N        2.673    -0.270    26.986     7.715
    71   1 H        0.860     0.239     0.929     1.510
    72   1 H        0.860     0.265     0.827     1.425
    73   7 N        2.677    -0.272    27.023     7.721
    74   1 H        0.860     0.225     0.986     1.555
    75   1 H        0.861     0.243     0.910     1.494
    76   6 C        2.761     0.198    23.780     7.986
    77   8 O        0.857    -0.406    21.807     6.261
    78   7 N        2.633    -0.367    29.460     8.061
    79   1 H        0.860     0.167     1.290     1.779
    80   6 C        3.786     0.046    19.822     6.341
    81   1 H        0.924     0.064     2.154     2.295
    82   6 C        3.811    -0.074    21.902     6.662
    83   1 H        0.924     0.065     2.137     2.286
    84   1 H        0.924     0.070     2.089     2.260
    85   6 C        2.963     0.008    27.841     8.655
    86   6 C        2.912    -0.043    29.070     8.841
    87   1 H        0.925     0.034     2.525     2.485
    88   6 C        2.915    -0.036    28.897     8.815
    89   1 H        0.925     0.026     2.642     2.542
    90   6 C        2.913    -0.037    28.927     8.819
    91   1 H        0.925     0.020     2.737     2.587
    92   6 C        2.909    -0.037    28.911     8.817
    93   1 H        0.926     0.038     2.474     2.460
    94   6 C        2.921    -0.044    29.101     8.846
    95   1 H        0.925     0.050     2.320     2.382
    96   6 C        2.756     0.204    23.666     7.966
    97   8 O        0.857    -0.391    21.497     6.216
    98   7 N        2.631    -0.365    29.428     8.057
    99   1 H        0.860     0.175     1.243     1.746
   100   6 C        3.787     0.032    20.058     6.379
   101   1 H        0.924     0.067     2.119     2.276
   102   6 C        3.806    -0.062    21.681     6.628
   103   1 H        0.924     0.043     2.412     2.429
   104   1 H        0.925     0.047     2.352     2.398
   105   6 C        3.804    -0.100    22.409     6.739
   106   1 H        0.925     0.065     2.145     2.290
   107   1 H        0.924     0.078     2.003     2.213
   108   6 C        2.744     0.289    22.106     7.698
   109   8 O        0.861    -0.535    24.574     6.646
   110   7 N        2.640    -0.292    27.528     7.792
   111   1 H        0.860     0.232     0.958     1.533
   112   1 H        0.860     0.248     0.890     1.477
   113   6 C        2.748     0.266    22.504     7.768
   114   8 O        0.859    -0.525    24.342     6.615
   115   7 N        2.686    -0.175    24.784     7.394
   116   1 H        0.860     0.211     1.053     1.608
   117   6 C        3.792     0.018    20.288     6.414
   118   1 H        0.924     0.089     1.885     2.147
   119   6 C        3.807    -0.045    21.374     6.581
   120   1 H        0.924     0.040     2.443     2.444
   121   1 H        0.924     0.055     2.260     2.351
   122   6 C        3.800    -0.083    22.088     6.691
   123   1 H        0.924     0.035     2.511     2.478
   124   1 H        0.924     0.029     2.606     2.525
   125   6 C        2.691     0.360    20.894     7.481
   126   8 O        0.861    -0.667    27.830     7.073
   127   8 O        0.861    -0.669    27.874     7.079
   128   6 C        2.751     0.272    22.398     7.750
   129   8 O        0.858    -0.508    23.965     6.564
   130   7 N        2.698    -0.152    24.281     7.318
   131   1 H        0.860     0.210     1.059     1.612
   132   6 C        3.792     0.028    20.104     6.385
   133   1 H        0.924     0.112     1.684     2.029
   134   6 C        3.853    -0.015    20.808     6.488
   135   1 H        0.924     0.064     2.158     2.297
   136   6 C        3.755    -0.108    22.627     6.783
   137   1 H        0.925     0.047     2.352     2.398
   138   1 H        0.925     0.024     2.668     2.554
   139   1 H        0.925     0.054     2.270     2.356
   140   6 C        3.753    -0.117    22.797     6.809
   141   1 H        0.924     0.049     2.336     2.390
   142   1 H        0.925     0.063     2.161     2.299
   143   1 H        0.923     0.032     2.556     2.500
   144   6 C        2.767     0.201    23.724     7.977
   145   8 O        0.856    -0.380    21.282     6.185
   146   7 N        2.632    -0.372    29.602     8.080
   147   1 H        0.860     0.176     1.237     1.743
   148   6 C        3.784     0.039    19.930     6.359
   149   1 H        0.925     0.068     2.105     2.269
   150   6 C        3.811    -0.072    21.861     6.655
   151   1 H        0.925     0.054     2.265     2.353
   152   1 H        0.925     0.052     2.296     2.370
   153   6 C        2.978     0.010    27.783     8.646
   154   6 C        2.907    -0.043    29.071     8.841
   155   1 H        0.926     0.057     2.232     2.336
   156   6 C        2.916    -0.063    29.561     8.916
   157   1 H        0.926     0.045     2.385     2.415
   158   6 C        2.828     0.137    25.007     8.194
   159   8 O        1.659    -0.461    22.076     6.343
   160   1 H        0.805     0.363     0.559     1.174
   161   6 C        2.933    -0.074    29.841     8.959
   162   1 H        0.925     0.032     2.563     2.504
   163   6 C        2.901    -0.040    28.989     8.828
   164   1 H        0.926     0.054     2.271     2.357
   165   6 C        2.757     0.199    23.767     7.983
   166   8 O        0.856    -0.402    21.714     6.248
   167   7 N        2.633    -0.365    29.411     8.054
   168   1 H        0.860     0.162     1.323     1.802
   169   6 C        3.788     0.052    19.722     6.325
   170   1 H        0.925     0.046     2.368     2.407
   171   6 C        3.816    -0.078    21.967     6.670
   172   1 H        0.925     0.059     2.210     2.325
   173   1 H        0.925     0.088     1.902     2.157
   174   6 C        3.031     0.037    27.141     8.545
   175   7 N        1.958    -0.339    29.628     8.072
   176   6 C        2.989     0.076    26.288     8.410
   177   1 H        0.926     0.058     2.227     2.334
   178   7 N        2.796    -0.096    23.113     7.140
   179   1 H        0.860     0.223     0.998     1.565
   180   6 C        3.035    -0.030    28.717     8.790
   181   1 H        0.926     0.037     2.493     2.469
   182   6 C        2.769     0.204    23.660     7.966
   183   8 O        0.857    -0.382    21.316     6.190
   184   7 N        2.631    -0.373    29.642     8.086
   185   1 H        0.860     0.158     1.349     1.819
   186   6 C        3.786     0.035    19.998     6.370
   187   1 H        0.924     0.072     2.061     2.245
   188   6 C        3.859    -0.025    20.981     6.514
   189   1 H        0.925     0.063     2.159     2.298
   190   6 C        3.757    -0.106    22.578     6.775
   191   1 H        0.925     0.042     2.416     2.431
   192   1 H        0.924     0.039     2.468     2.457
   193   1 H        0.924     0.028     2.617     2.530
   194   6 C        3.809    -0.066    21.765     6.641
   195   1 H        0.925     0.030     2.590     2.517
   196   1 H        0.925     0.034     2.533     2.489
   197   6 C        3.752    -0.117    22.805     6.810
   198   1 H        0.924     0.039     2.459     2.452
   199   1 H        0.925     0.040     2.455     2.450
   200   1 H        0.924     0.054     2.271     2.357
   201   6 C        2.758     0.209    23.575     7.951
   202   8 O        0.856    -0.395    21.579     6.228
   203   1 H        0.860     0.191     1.150     1.680
   204   1 H        0.923     0.052     2.299     2.371
   205   1 H        0.860     0.182     1.202     1.717
   206   1 H        0.923     0.078     1.995     2.209
   207   1 H        0.860     0.174     1.247     1.749
   208   1 H        0.923     0.058     2.218     2.329
   209   1 H        0.860     0.192     1.148     1.679
   210   1 H        0.923     0.048     2.346     2.395
   211   1 H        0.860     0.164     1.307     1.791
   212   1 H        0.923     0.083     1.954     2.186
   213   1 H        0.860     0.179     1.219     1.729
   214   1 H        0.923     0.063     2.166     2.301
   215   1 H        0.860     0.182     1.201     1.717
   216   1 H        0.923     0.060     2.196     2.317
   217   1 H        0.860     0.193     1.142     1.674
   218   1 H        0.923     0.056     2.246     2.344

 Mol. C6AA /au·bohr⁶  :     470025.568289
 Mol. C8AA /au·bohr⁸  :   10633163.478872
 Mol. α(0) /au        :       1044.729622


Wiberg/Mayer (AO) data.
largest (>0.10) Wiberg bond orders for each atom

 ---------------------------------------------------------------------------
     #   Z sym  total        # sym  WBO       # sym  WBO       # sym  WBO
 ---------------------------------------------------------------------------
     1   7 N    3.025 --     3 C    1.036     2 H    0.954   203 H    0.948
     2   1 H    0.971 --     1 N    0.954
     3   6 C    3.985 --     1 N    1.036    20 C    0.992     4 H    0.937
                             5 C    0.926
     4   1 H    0.992 --     3 C    0.937
     5   6 C    3.990 --     8 C    1.010     7 H    0.969     6 H    0.960
                             3 C    0.926
     6   1 H    0.994 --     5 C    0.960
     7   1 H    0.997 --     5 C    0.969
     8   6 C    3.986 --    18 C    1.409     9 C    1.396     5 C    1.010
     9   6 C    3.989 --    11 C    1.463     8 C    1.396    10 H    0.968
                            16 C    0.104
    10   1 H    0.999 --     9 C    0.968
    11   6 C    3.987 --     9 C    1.463    13 C    1.352    12 H    0.968
                            18 C    0.107
    12   1 H    0.999 --    11 C    0.968
    13   6 C    3.936 --    16 C    1.372    11 C    1.352    14 O    1.080
    14   8 O    2.098 --    13 C    1.080    15 H    0.831
    15   1 H    0.886 --    14 O    0.831
    16   6 C    3.982 --    18 C    1.445    13 C    1.372    17 H    0.964
                             9 C    0.104
    17   1 H    0.997 --    16 C    0.964
    18   6 C    3.988 --    16 C    1.445     8 C    1.409    19 H    0.967
                            11 C    0.107
    19   1 H    0.997 --    18 C    0.967
    20   6 C    3.890 --    21 O    1.865     3 C    0.992   204 H    0.939
    21   8 O    2.038 --    20 C    1.865
    22   7 N    3.032 --    24 C    1.029    23 H    0.957   205 H    0.952
    23   1 H    0.973 --    22 N    0.957
    24   6 C    3.979 --    22 N    1.029    26 C    0.966    40 C    0.932
                            25 H    0.931
    25   1 H    0.995 --    24 C    0.931
    26   6 C    3.991 --    29 C    1.006    27 H    0.967    24 C    0.966
                            28 H    0.960
    27   1 H    0.995 --    26 C    0.967
    28   1 H    0.997 --    26 C    0.960
    29   6 C    3.987 --    38 C    1.416    30 C    1.409    26 C    1.006
                            34 C    0.108
    30   6 C    3.988 --    32 C    1.443    29 C    1.409    31 H    0.967
                            36 C    0.112
    31   1 H    0.997 --    30 C    0.967
    32   6 C    3.989 --    30 C    1.443    34 C    1.436    33 H    0.970
                            38 C    0.113
    33   1 H    0.997 --    32 C    0.970
    34   6 C    3.990 --    36 C    1.441    32 C    1.436    35 H    0.971
                            29 C    0.108
    35   1 H    0.998 --    34 C    0.971
    36   6 C    3.992 --    34 C    1.441    38 C    1.438    37 H    0.972
                            30 C    0.112
    37   1 H    0.999 --    36 C    0.972
    38   6 C    3.991 --    36 C    1.438    29 C    1.416    39 H    0.966
                            32 C    0.113
    39   1 H    0.999 --    38 C    0.966
    40   6 C    3.932 --    41 O    1.604    42 N    1.297    24 C    0.932
    41   8 O    1.911 --    40 C    1.604    42 N    0.188
    42   7 N    3.467 --    40 C    1.297    44 C    0.980    43 H    0.921
                            41 O    0.188
    43   1 H    0.956 --    42 N    0.921
    44   6 C    3.971 --    52 C    0.990    42 N    0.980    45 H    0.947
                            46 C    0.947
    45   1 H    0.991 --    44 C    0.947
    46   6 C    3.986 --    47 H    0.970    48 H    0.951    44 C    0.947
                            49 C    0.945
    47   1 H    0.998 --    46 C    0.970
    48   1 H    0.996 --    46 C    0.951
    49   6 C    3.938 --    50 O    1.490    51 O    1.459    46 C    0.945
    50   8 O    1.820 --    49 C    1.490    51 O    0.210
    51   8 O    1.872 --    49 C    1.459    50 O    0.210
    52   6 C    3.879 --    53 O    1.890    44 C    0.990   206 H    0.935
    53   8 O    2.047 --    52 C    1.890
    54   7 N    3.019 --    56 C    1.024   207 H    0.956    55 H    0.954
    55   1 H    0.970 --    54 N    0.954
    56   6 C    3.984 --    54 N    1.024    76 C    0.987    58 C    0.971
                            57 H    0.924
    57   1 H    0.992 --    56 C    0.924
    58   6 C    3.987 --    61 C    1.005    56 C    0.971    59 H    0.970
                            60 H    0.968
    59   1 H    0.997 --    58 C    0.970
    60   1 H    0.995 --    58 C    0.968
    61   6 C    3.991 --    58 C    1.005    64 C    0.997    63 H    0.976
                            62 H    0.969
    62   1 H    0.995 --    61 C    0.969
    63   1 H    0.997 --    61 C    0.976
    64   6 C    3.953 --    61 C    0.997    67 N    0.980    66 H    0.967
                            65 H    0.965
    65   1 H    0.994 --    64 C    0.965
    66   1 H    0.993 --    64 C    0.967
    67   7 N    3.435 --    69 C    1.290    64 C    0.980    68 H    0.917
    68   1 H    0.946 --    67 N    0.917
    69   6 C    3.973 --    73 N    1.328    70 N    1.325    67 N    1.290
    70   7 N    3.389 --    69 C    1.325    71 H    0.918    72 H    0.872
                            73 N    0.108
    71   1 H    0.943 --    70 N    0.918
    72   1 H    0.930 --    70 N    0.872
    73   7 N    3.399 --    69 C    1.328    74 H    0.924    75 H    0.867
                            70 N    0.108
    74   1 H    0.949 --    73 N    0.924
    75   1 H    0.941 --    73 N    0.867
    76   6 C    3.877 --    77 O    1.865    56 C    0.987   208 H    0.938
    77   8 O    2.018 --    76 C    1.865
    78   7 N    3.023 --    80 C    1.037    79 H    0.957   209 H    0.949
    79   1 H    0.972 --    78 N    0.957
    80   6 C    3.988 --    78 N    1.037    96 C    0.984    81 H    0.946
                            82 C    0.934
    81   1 H    0.996 --    80 C    0.946
    82   6 C    3.988 --    85 C    1.008    84 H    0.967    83 H    0.962
                            80 C    0.934
    83   1 H    0.995 --    82 C    0.962
    84   1 H    0.995 --    82 C    0.967
    85   6 C    3.987 --    94 C    1.429    86 C    1.395    82 C    1.008
                            90 C    0.108
    86   6 C    3.987 --    88 C    1.452    85 C    1.395    87 H    0.967
                            92 C    0.115
    87   1 H    0.999 --    86 C    0.967
    88   6 C    3.990 --    86 C    1.452    90 C    1.428    89 H    0.971
                            94 C    0.109
    89   1 H    0.999 --    88 C    0.971
    90   6 C    3.989 --    92 C    1.448    88 C    1.428    91 H    0.969
                            85 C    0.108
    91   1 H    0.999 --    90 C    0.969
    92   6 C    3.990 --    90 C    1.448    94 C    1.427    93 H    0.972
                            86 C    0.115
    93   1 H    0.998 --    92 C    0.972
    94   6 C    3.989 --    85 C    1.429    92 C    1.427    95 H    0.968
                            88 C    0.109
    95   1 H    0.997 --    94 C    0.968
    96   6 C    3.883 --    97 O    1.877    80 C    0.984   210 H    0.941
    97   8 O    2.025 --    96 C    1.877
    98   7 N    3.029 --   100 C    1.027   211 H    0.958    99 H    0.955
    99   1 H    0.969 --    98 N    0.955
   100   6 C    3.984 --    98 N    1.027   102 C    0.979   113 C    0.942
                           101 H    0.934
   101   1 H    0.995 --   100 C    0.934
   102   6 C    3.990 --   105 C    0.986   100 C    0.979   103 H    0.975
                           104 H    0.974
   103   1 H    0.998 --   102 C    0.975
   104   1 H    0.998 --   102 C    0.974
   105   6 C    3.990 --   102 C    0.986   108 C    0.975   106 H    0.972
                           107 H    0.961
   106   1 H    0.996 --   105 C    0.972
   107   1 H    0.994 --   105 C    0.961
   108   6 C    3.940 --   109 O    1.621   110 N    1.317   105 C    0.975
   109   8 O    1.916 --   108 C    1.621   110 N    0.195
   110   7 N    3.388 --   108 C    1.317   111 H    0.923   112 H    0.916
                           109 O    0.195
   111   1 H    0.946 --   110 N    0.923
   112   1 H    0.938 --   110 N    0.916
   113   6 C    3.939 --   114 O    1.613   115 N    1.291   100 C    0.942
   114   8 O    1.920 --   113 C    1.613   115 N    0.189
   115   7 N    3.470 --   113 C    1.291   117 C    0.980   116 H    0.921
                           114 O    0.189
   116   1 H    0.956 --   115 N    0.921
   117   6 C    3.963 --   115 N    0.980   119 C    0.979   128 C    0.943
                           118 H    0.934
   118   1 H    0.991 --   117 C    0.934
   119   6 C    3.991 --   122 C    0.998   117 C    0.979   121 H    0.975
                           120 H    0.972
   120   1 H    0.998 --   119 C    0.972
   121   1 H    0.996 --   119 C    0.975
   122   6 C    3.996 --   119 C    0.998   124 H    0.978   123 H    0.967
                           125 C    0.946
   123   1 H    0.999 --   122 C    0.967
   124   1 H    0.999 --   122 C    0.978
   125   6 C    3.931 --   126 O    1.486   127 O    1.478   122 C    0.946
   126   8 O    1.763 --   125 C    1.486   127 O    0.210
   127   8 O    1.757 --   125 C    1.478   126 O    0.210
   128   6 C    3.955 --   129 O    1.619   130 N    1.312   117 C    0.943
   129   8 O    1.934 --   128 C    1.619   130 N    0.197
   130   7 N    3.482 --   128 C    1.312   132 C    0.984   131 H    0.906
                           129 O    0.197
   131   1 H    0.956 --   130 N    0.906
   132   6 C    3.964 --   144 C    0.999   130 N    0.984   134 C    0.943
                           133 H    0.917
   133   1 H    0.987 --   132 C    0.917
   134   6 C    3.985 --   140 C    1.008   136 C    1.004   135 H    0.962
                           132 C    0.943
   135   1 H    0.995 --   134 C    0.962
   136   6 C    3.988 --   134 C    1.004   139 H    0.983   138 H    0.982
                           137 H    0.980
   137   1 H    0.998 --   136 C    0.980
   138   1 H    0.999 --   136 C    0.982
   139   1 H    0.996 --   136 C    0.983
   140   6 C    3.992 --   134 C    1.008   143 H    0.985   141 H    0.984
                           142 H    0.983
   141   1 H    0.998 --   140 C    0.984
   142   1 H    0.996 --   140 C    0.983
   143   1 H    0.999 --   140 C    0.985
   144   6 C    3.872 --   145 O    1.870   132 C    0.999   212 H    0.936
   145   8 O    2.041 --   144 C    1.870
   146   7 N    3.039 --   148 C    1.027   147 H    0.954   213 H    0.954
   147   1 H    0.969 --   146 N    0.954
   148   6 C    3.984 --   146 N    1.027   165 C    0.973   150 C    0.951
                           149 H    0.945
   149   1 H    0.995 --   148 C    0.945
   150   6 C    3.989 --   153 C    1.004   152 H    0.973   151 H    0.962
                           148 C    0.951
   151   1 H    0.996 --   150 C    0.962
   152   1 H    0.997 --   150 C    0.973
   153   6 C    3.987 --   154 C    1.419   163 C    1.396   150 C    1.004
   154   6 C    3.986 --   156 C    1.436   153 C    1.419   155 H    0.966
                           161 C    0.106
   155   1 H    0.996 --   154 C    0.966
   156   6 C    3.985 --   154 C    1.436   158 C    1.379   157 H    0.969
                           163 C    0.108
   157   1 H    0.998 --   156 C    0.969
   158   6 C    3.932 --   156 C    1.379   161 C    1.357   159 O    1.067
   159   8 O    2.066 --   158 C    1.067   160 H    0.843
   160   1 H    0.868 --   159 O    0.843
   161   6 C    3.986 --   163 C    1.464   158 C    1.357   162 H    0.964
                           154 C    0.106
   162   1 H    0.999 --   161 C    0.964
   163   6 C    3.989 --   161 C    1.464   153 C    1.396   164 H    0.967
                           156 C    0.108
   164   1 H    0.997 --   163 C    0.967
   165   6 C    3.873 --   166 O    1.872   148 C    0.973   214 H    0.937
   166   8 O    2.024 --   165 C    1.872
   167   7 N    3.011 --   169 C    1.017   168 H    0.958   215 H    0.950
   168   1 H    0.974 --   167 N    0.958
   169   6 C    3.986 --   167 N    1.017   182 C    0.992   170 H    0.962
                           171 C    0.928
   170   1 H    0.998 --   169 C    0.962
   171   6 C    3.989 --   174 C    1.012   172 H    0.970   173 H    0.958
                           169 C    0.928
   172   1 H    0.996 --   171 C    0.970
   173   1 H    0.992 --   171 C    0.958
   174   6 C    3.973 --   180 C    1.567   175 N    1.264   171 C    1.012
   175   7 N    2.985 --   176 C    1.525   174 C    1.264   178 N    0.105
   176   6 C    3.958 --   175 N    1.525   178 N    1.296   177 H    0.964
                           180 C    0.117
   177   1 H    0.996 --   176 C    0.964
   178   7 N    3.594 --   176 C    1.296   180 C    1.201   179 H    0.921
                           175 N    0.105
   179   1 H    0.950 --   178 N    0.921
   180   6 C    3.938 --   174 C    1.567   178 N    1.201   181 H    0.966
                           176 C    0.117
   181   1 H    0.999 --   180 C    0.966
   182   6 C    3.875 --   183 O    1.879   169 C    0.992   216 H    0.940
   183   8 O    2.029 --   182 C    1.879
   184   7 N    3.004 --   186 C    1.022   185 H    0.959   217 H    0.946
   185   1 H    0.975 --   184 N    0.959
   186   6 C    3.982 --   184 N    1.022   201 C    0.986   187 H    0.948
                           188 C    0.935
   187   1 H    0.995 --   186 C    0.948
   188   6 C    3.990 --   190 C    1.008   194 C    0.993   189 H    0.958
                           186 C    0.935
   189   1 H    0.996 --   188 C    0.958
   190   6 C    3.993 --   188 C    1.008   193 H    0.985   191 H    0.983
                           192 H    0.979
   191   1 H    0.998 --   190 C    0.983
   192   1 H    0.998 --   190 C    0.979
   193   1 H    0.999 --   190 C    0.985
   194   6 C    3.995 --   197 C    1.017   188 C    0.993   195 H    0.974
                           196 H    0.972
   195   1 H    0.999 --   194 C    0.974
   196   1 H    0.999 --   194 C    0.972
   197   6 C    3.992 --   194 C    1.017   198 H    0.988   200 H    0.981
                           199 H    0.974
   198   1 H    0.998 --   197 C    0.988
   199   1 H    0.998 --   197 C    0.974
   200   1 H    0.997 --   197 C    0.981
   201   6 C    3.876 --   202 O    1.878   186 C    0.986   218 H    0.939
   202   8 O    2.026 --   201 C    1.878
   203   1 H    0.963 --     1 N    0.948
   204   1 H    0.997 --    20 C    0.939
   205   1 H    0.967 --    22 N    0.952
   206   1 H    0.993 --    52 C    0.935
   207   1 H    0.969 --    54 N    0.956
   208   1 H    0.996 --    76 C    0.938
   209   1 H    0.963 --    78 N    0.949
   210   1 H    0.998 --    96 C    0.941
   211   1 H    0.973 --    98 N    0.958
   212   1 H    0.992 --   144 C    0.936
   213   1 H    0.968 --   146 N    0.954
   214   1 H    0.996 --   165 C    0.937
   215   1 H    0.967 --   167 N    0.950
   216   1 H    0.996 --   182 C    0.940
   217   1 H    0.963 --   184 N    0.946
   218   1 H    0.997 --   201 C    0.939
 ---------------------------------------------------------------------------

Topologies differ in total number of bonds
Writing topology from bond orders to xtbtopo.mol

molecular dipole:
                 x           y           z       tot (Debye)
 q only:      -72.703     -68.448     -82.715
   full:      -72.066     -68.343     -82.908     328.839
molecular quadrupole (traceless):
                xx          xy          yy          xz          yz          zz
 q only:      467.957   -7412.656    1538.280   -8906.110   -8634.098   -2006.237
  q+dip:      558.716   -7378.876    1524.634   -8839.055   -8624.647   -2083.350
   full:      561.145   -7376.890    1525.964   -8839.888   -8623.550   -2087.108


           -------------------------------------------------
          | TOTAL ENERGY             -335.288826468561 Eh   |
          | GRADIENT NORM               0.293573829194 Eh/α |
          | HOMO-LUMO GAP               1.294972973873 eV   |
Note: The following floating-point exceptions are signalling: IEEE_UNDERFLOW_FLAG IEEE_DENORMAL
normal termination of xtb
           -------------------------------------------------

------------------------------------------------------------------------
 * finished run on 2026/01/05 at 09:06:20.679     
------------------------------------------------------------------------
 total:
 * wall-time:     0 d,  0 h,  0 min,  1.426 sec
 *  cpu-time:     0 d,  0 h,  0 min, 20.806 sec
 * ratio c/w:    14.589 speedup
 SCF:
 * wall-time:     0 d,  0 h,  0 min,  1.364 sec
 *  cpu-time:     0 d,  0 h,  0 min, 19.871 sec
 * ratio c/w:    14.568 speedup

