      -----------------------------------------------------------      
     |                   =====================                   |     
     |                           x T B                           |     
     |                   =====================                   |     
     |                         S. Grimme                         |     
     |          Mulliken Center for Theoretical Chemistry        |     
     |                    University of Bonn                     |     
      -----------------------------------------------------------      

   * xtb version 6.7.1 (edcfbbe) compiled by 'conda@c0858423619e' on 2025-09-04

   xtb is free software: you can redistribute it and/or modify it under
   the terms of the GNU Lesser General Public License as published by
   the Free Software Foundation, either version 3 of the License, or
   (at your option) any later version.
   
   xtb is distributed in the hope that it will be useful,
   but WITHOUT ANY WARRANTY; without even the implied warranty of
   MERCHANTABILITY or FITNESS FOR A PARTICULAR PURPOSE.  See the
   GNU Lesser General Public License for more details.
   
   Cite this work as:
   * C. Bannwarth, E. Caldeweyher, S. Ehlert, A. Hansen, P. Pracht,
     J. Seibert, S. Spicher, S. Grimme, WIREs Comput. Mol. Sci., 2020, 11,
     e01493. DOI: 10.1002/wcms.1493
   
   for GFN2-xTB:
   * C. Bannwarth, S. Ehlert and S. Grimme., J. Chem. Theory Comput., 2019,
     15, 1652-1671. DOI: 10.1021/acs.jctc.8b01176
   for GFN1-xTB:
   * S. Grimme, C. Bannwarth, P. Shushkov, J. Chem. Theory Comput., 2017,
     13, 1989-2009. DOI: 10.1021/acs.jctc.7b00118
   for GFN0-xTB:
   * P. Pracht, E. Caldeweyher, S. Ehlert, S. Grimme, ChemRxiv, 2019, preprint.
     DOI: 10.26434/chemrxiv.8326202.v1
   for GFN-FF:
   * S. Spicher and S. Grimme, Angew. Chem. Int. Ed., 2020, 59, 15665-15673.
     DOI: 10.1002/anie.202004239
   
   for ALPB and GBSA implicit solvation:
   * S. Ehlert, M. Stahn, S. Spicher, S. Grimme, J. Chem. Theory Comput.,
     2021, 17, 4250-4261. DOI: 10.1021/acs.jctc.1c00471
   
   for ddCOSMO and CPCM-X implicit solvation:
   * M. Stahn, S. Ehlert, S. Grimme, J. Phys. Chem. A,
     2023, XX, XXXX-XXXX. DOI: 10.1021/acs.jpca.3c04382
   
   for DFT-D4:
   * E. Caldeweyher, C. Bannwarth and S. Grimme, J. Chem. Phys., 2017,
     147, 034112. DOI: 10.1063/1.4993215
   * E. Caldeweyher, S. Ehlert, A. Hansen, H. Neugebauer, S. Spicher,
     C. Bannwarth and S. Grimme, J. Chem. Phys., 2019, 150, 154122.
     DOI: 10.1063/1.5090222
   * E. Caldeweyher, J.-M. Mewes, S. Ehlert and S. Grimme, Phys. Chem. Chem. Phys.
     2020, 22, 8499-8512. DOI: 10.1039/D0CP00502A
   
   for sTDA-xTB:
   * S. Grimme and C. Bannwarth, J. Chem. Phys., 2016, 145, 054103.
     DOI: 10.1063/1.4959605
   
   in the mass-spec context:
   * V. Asgeirsson, C. Bauer and S. Grimme, Chem. Sci., 2017, 8, 4879.
     DOI: 10.1039/c7sc00601b
   * J. Koopman and S. Grimme, ACS Omega 2019, 4, 12, 15120-15133.
     DOI: 10.1021/acsomega.9b02011
   
   for metadynamics refer to:
   * S. Grimme, J. Chem. Theory Comput., 2019, 155, 2847-2862
     DOI: 10.1021/acs.jctc.9b00143
   
   for SPH calculations refer to:
   * S. Spicher and S. Grimme, J. Chem. Theory Comput., 2021, 17, 1701-1714
     DOI: 10.1021/acs.jctc.0c01306
   
   for ONIOM refer to:
   * C. Plett, A. Katbashev, S. Ehlert, S. Grimme, M. Bursch,
     Phys. Chem. Chem. Phys., 2023, 25, 17860-17868. DOI: 10.1039/D3CP02178E
   
   for DIPRO refer to:
   * J. Kohn, N. Gildemeister, S. Grimme, D. Fazzi, A. Hansen,
     J. Chem. Phys., 2023, just accepted.
   
   for PTB refer to:
   * S. Grimme, M. Mueller, A. Hansen, J. Chem. Phys., 2023, 158, 124111.
     DOI: 10.1063/5.0137838
   
   with help from (in alphabetical order)
   P. Atkinson, C. Bannwarth, F. Bohle, G. Brandenburg, E. Caldeweyher
   M. Checinski, S. Dohm, S. Ehlert, S. Ehrlich, I. Gerasimov, C. Hölzer
   A. Katbashev, J. Kohn, J. Koopman, C. Lavigne, S. Lehtola, F. März, M. Müller,
   F. Musil, H. Neugebauer, J. Pisarek, C. Plett, P. Pracht, F. Pultar,
   J. Seibert, P. Shushkov, S. Spicher, M. Stahn, M. Steiner, T. Strunk,
   J. Stückrath, T. Rose, and J. Unsleber
   
 * started run on 2026/01/05 at 09:07:05.091     
   ID    Z sym.   atoms
    1    7 N      1, 21, 33, 45, 50, 65, 81, 100, 121, 129, 132, 138, 157
    2    1 H      2, 4, 6, 7, 10, 12, 14, 16, 18, 22, 24, 26, 27, 34, 36, 38,
                  39, 41, 42, 46, 47, 51, 53, 55, 56, 58, 59, 66, 68, 70,
                  72-74, 76-78, 82, 84, 86, 88-90, 92, 93, 95-97, 101, 103,
                  105, 106, 109, 111, 114, 116, 118, 122, 124, 126, 127, 131,
                  133, 135, 139, 141, 143, 145-147, 149, 150, 152-154, 158,
                  160, 162, 164-166, 168, 169, 171-173, 176-185
    3    6 C      3, 5, 8, 9, 11, 13, 15, 17, 19, 23, 25, 28, 31, 35, 37, 40,
                  43, 48, 52, 54, 57, 60, 63, 67, 69, 71, 75, 79, 83, 85, 87,
                  91, 94, 98, 102, 104, 107, 108, 110, 112, 115, 117, 119,
                  123, 125, 128, 130, 134, 136, 140, 142, 144, 148, 151, 155,
                  159, 161, 163, 167, 170, 174
    4    8 O      20, 29, 30, 32, 44, 49, 61, 62, 64, 80, 99, 113, 120, 137,
                  156, 175

           -------------------------------------------------
          |                Calculation Setup                |
           -------------------------------------------------

          program call               : xtb /home/antonio_mesquita/Documentos/gmx_ISA_project/testes_arquivos_primeiros/gmx_ISA_testes/testes_qm_xtb/QM_analysis/QM_FRAMES_CAPPED/frame_2800ps/residues_pocket_capped_2800ps.xyz --gfn 2 --alpb water --chrg -2 --etemp 1500 --cycles 1000
          coordinate file            : /home/antonio_mesquita/Documentos/gmx_ISA_project/testes_arquivos_primeiros/gmx_ISA_testes/testes_qm_xtb/QM_analysis/QM_FRAMES_CAPPED/frame_2800ps/residues_pocket_capped_2800ps.xyz
          omp threads                :                    16


molecular fragmentation (1/2 indicates fragments):
111111111111111111111111111111112222222222222222222222222222222222222222
222222222222222222222222222222222222222222222222222222222222222222222222
22222222222222222222222222222221122222222
# atoms in fragment 1/2:    34   151
 fragment masses (1/2) :      263.27     1003.22
CMA distance (Bohr)    :  19.061
constraining FC (au)   :  0.0500

           -------------------------------------------------
          |                 G F N 2 - x T B                 |
           -------------------------------------------------

        Reference                      10.1021/acs.jctc.8b01176
      * Hamiltonian:
        H0-scaling (s, p, d)           1.850000    2.230000    2.230000
        zeta-weighting                 0.500000
      * Dispersion:
        s8                             2.700000
        a1                             0.520000
        a2                             5.000000
        s9                             5.000000
      * Repulsion:
        kExp                           1.500000    1.000000
        rExp                           1.000000
      * Coulomb:
        alpha                          2.000000
        third order                    shell-resolved
        anisotropic                    true
        a3                             3.000000
        a5                             4.000000
        cn-shift                       1.200000
        cn-exp                         4.000000
        max-rad                        5.000000

      * Solvation model:               ALPB
        Solvent                        water
        Parameter file                 internal GFN2-xTB/ALPB
        Dielectric constant                8.0200E+01
        Reference state                gsolv [1 M gas/solution]
        Free energy shift                  1.0808E-03 Eh       6.7819E-01 kcal/mol
        Temperature                        2.9815E+02 K
        Density                            1.0000E+00 kg/L
        Solvent mass                       1.8000E+01 g/mol
        Interaction kernel             P16
        Born radius scaling (c1)           1.4744E+00
        Born radii integrator          GBOBC
        Born offset                        0.0000E+00 a0       0.0000E+00 AA
        H-bond correction              true
        Ion screening                  false
        Surface tension                    1.0000E-05 Eh       1.5569E+01 dyn/cm
        Grid points                               230 per atom

          ...................................................
          :                      SETUP                      :
          :.................................................:
          :  # basis functions                 455          :
          :  # atomic orbitals                 455          :
          :  # shells                          275          :
          :  # electrons                       502          :
          :  max. iterations                   250          :
          :  Hamiltonian                  GFN2-xTB          :
          :  restarted?                      false          :
          :  GBSA solvation                   true          :
          :  PC potential                    false          :
          :  electronic temp.         1500.0000000     K    :
          :  accuracy                    1.0000000          :
          :  -> integral cutoff          0.2500000E+02      :
          :  -> integral neglect         0.1000000E-07      :
          :  -> SCF convergence          0.1000000E-05 Eh   :
          :  -> wf. convergence          0.1000000E-03 e    :
          :  Broyden damping             0.4000000          :
          :  net charge                         -2          :
          :  unpaired electrons                  0          :
          ...................................................

 iter      E             dE          RMSdq      gap      omega  full diag
   1   -285.3562081 -0.285356E+03  0.448E+00    1.73       0.0  T
   2   -286.0400796 -0.683871E+00  0.228E+00    1.10       1.0  T
   3   -286.0621726 -0.220930E-01  0.123E+00    1.62       1.0  T
   4   -286.0840134 -0.218407E-01  0.295E-01    1.08       1.0  T
   5   -286.0923483 -0.833490E-02  0.116E-01    1.30       1.0  T
   6   -286.0926294 -0.281191E-03  0.627E-02    1.25       1.0  T
   7   -286.0927589 -0.129433E-03  0.245E-02    1.25       1.0  T
   8   -286.0927837 -0.248398E-04  0.986E-03    1.26       1.0  T
   9   -286.0927869 -0.317303E-05  0.502E-03    1.25       1.5  T
  10   -286.0927877 -0.852342E-06  0.230E-03    1.26       3.2  T
  11   -286.0927879 -0.191215E-06  0.105E-03    1.25       7.0  T
  12   -286.0927880 -0.535674E-07  0.485E-04    1.25      15.2  T
  13   -286.0927880 -0.819273E-08  0.231E-04    1.25      31.8  T

   *** convergence criteria satisfied after 13 iterations ***

         #    Occupation            Energy/Eh            Energy/eV
      -------------------------------------------------------------
         1        2.0000           -0.7360706             -20.0295
       ...           ...                  ...                  ...
       245        2.0000           -0.3687113             -10.0331
       246        1.9998           -0.3596533              -9.7867
       247        1.9991           -0.3524907              -9.5918
       248        1.9971           -0.3470905              -9.4448
       249        1.9931           -0.3429248              -9.3315
       250        1.9889           -0.3406349              -9.2691
       251        1.9854           -0.3393307              -9.2337 (HOMO)
       252        0.0164           -0.2932166              -7.9788 (LUMO)
       253        0.0106           -0.2911213              -7.9218
       254        0.0050           -0.2875938              -7.8258
       255        0.0044           -0.2869070              -7.8071
       256        0.0004           -0.2759314              -7.5085
       ...           ...                  ...                  ...
       455                          0.6366968              17.3254
      -------------------------------------------------------------
                  HL-Gap            0.0461141 Eh            1.2548 eV
             Fermi-level           -0.3160068 Eh           -8.5990 eV

 SCC (total)                   0 d,  0 h,  0 min,  0.946 sec
 SCC setup                      ...        0 min,  0.007 sec (  0.709%)
 Dispersion                     ...        0 min,  0.016 sec (  1.689%)
 classical contributions        ...        0 min,  0.001 sec (  0.146%)
 integral evaluation            ...        0 min,  0.053 sec (  5.556%)
 iterations                     ...        0 min,  0.727 sec ( 76.842%)
 molecular gradient             ...        0 min,  0.139 sec ( 14.652%)
 printout                       ...        0 min,  0.004 sec (  0.400%)

         :::::::::::::::::::::::::::::::::::::::::::::::::::::
         ::                     SUMMARY                     ::
         :::::::::::::::::::::::::::::::::::::::::::::::::::::
         :: total energy            -282.651183629080 Eh    ::
         :: total w/o Gsasa/hb      -282.631501400607 Eh    ::
         :: gradient norm              0.243963404016 Eh/a0 ::
         :: HOMO-LUMO gap              1.254828636312 eV    ::
         ::.................................................::
         :: SCC energy              -286.084129048989 Eh    ::
         :: -> isotropic ES            1.078588419513 Eh    ::
         :: -> anisotropic ES          0.027983085477 Eh    ::
         :: -> anisotropic XC          0.109579172464 Eh    ::
         :: -> dispersion             -0.196010081839 Eh    ::
         :: -> Gsolv                  -0.368252077872 Eh    ::
         ::    -> Gelec               -0.348569849399 Eh    ::
         ::    -> Gsasa                0.015569820637 Eh    ::
         ::    -> Ghb                 -0.036332808808 Eh    ::
         ::    -> Gshift               0.001080759698 Eh    ::
         :: repulsion energy           3.432945419910 Eh    ::
         :: add. restraining           0.000000000000 Eh    ::
         :: total charge              -2.000000000000 e     ::
         :::::::::::::::::::::::::::::::::::::::::::::::::::::

           -------------------------------------------------
          |                Property Printout                |
           -------------------------------------------------

    * Orbital Energies and Occupations

         #    Occupation            Energy/Eh            Energy/eV
      -------------------------------------------------------------
         1        2.0000           -0.7360706             -20.0295
       ...           ...                  ...                  ...
       239        2.0000           -0.3868493             -10.5267
       240        2.0000           -0.3841779             -10.4540
       241        2.0000           -0.3752176             -10.2102
       242        2.0000           -0.3746493             -10.1947
       243        2.0000           -0.3731370             -10.1536
       244        2.0000           -0.3720751             -10.1247
       245        2.0000           -0.3687113             -10.0331
       246        1.9998           -0.3596533              -9.7867
       247        1.9991           -0.3524907              -9.5918
       248        1.9971           -0.3470905              -9.4448
       249        1.9931           -0.3429248              -9.3315
       250        1.9889           -0.3406349              -9.2691
       251        1.9854           -0.3393307              -9.2337 (HOMO)
       252        0.0164           -0.2932166              -7.9788 (LUMO)
       253        0.0106           -0.2911213              -7.9218
       254        0.0050           -0.2875938              -7.8258
       255        0.0044           -0.2869070              -7.8071
       256        0.0004           -0.2759314              -7.5085
       257                         -0.2290355              -6.2324
       258                         -0.2272349              -6.1834
       259                         -0.2256132              -6.1392
       260                         -0.2252791              -6.1302
       261                         -0.2239257              -6.0933
       262                         -0.2154956              -5.8639
       ...                                ...                  ...
       455                          0.6366968              17.3254
      -------------------------------------------------------------
                  HL-Gap            0.0461141 Eh            1.2548 eV
             Fermi-level           -0.3160068 Eh           -8.5990 eV

     #   Z          covCN         q      C6AA      α(0)
     1   7 N        2.632    -0.376    29.711     8.095
     2   1 H        0.860     0.157     1.354     1.823
     3   6 C        3.786     0.030    20.078     6.382
     4   1 H        0.925     0.072     2.065     2.247
     5   6 C        3.813    -0.072    21.867     6.656
     6   1 H        0.925     0.071     2.074     2.252
     7   1 H        0.924     0.041     2.438     2.442
     8   6 C        2.957     0.006    27.878     8.660
     9   6 C        2.920    -0.043    29.068     8.841
    10   1 H        0.925     0.049     2.332     2.388
    11   6 C        2.908    -0.043    29.058     8.839
    12   1 H        0.926     0.050     2.318     2.381
    13   6 C        2.919    -0.041    29.030     8.835
    14   1 H        0.927     0.040     2.453     2.449
    15   6 C        2.900    -0.033    28.819     8.802
    16   1 H        0.926     0.027     2.632     2.537
    17   6 C        2.926    -0.034    28.851     8.808
    18   1 H        0.926    -0.001     3.068     2.739
    19   6 C        2.746     0.272    22.396     7.749
    20   8 O        0.860    -0.533    24.522     6.639
    21   7 N        2.691    -0.164    24.545     7.358
    22   1 H        0.860     0.213     1.043     1.600
    23   6 C        3.787     0.039    19.925     6.358
    24   1 H        0.925     0.088     1.896     2.153
    25   6 C        3.807    -0.083    22.081     6.689
    26   1 H        0.925     0.040     2.444     2.445
    27   1 H        0.923     0.055     2.261     2.351
    28   6 C        2.687     0.364    20.828     7.469
    29   8 O        0.856    -0.658    27.583     7.041
    30   8 O        0.857    -0.652    27.425     7.021
    31   6 C        2.759     0.212    23.503     7.939
    32   8 O        0.856    -0.358    20.864     6.124
    33   7 N        2.631    -0.365    29.409     8.054
    34   1 H        0.861     0.175     1.245     1.748
    35   6 C        3.790     0.028    20.122     6.388
    36   1 H        0.925     0.074     2.044     2.235
    37   6 C        3.803    -0.057    21.599     6.616
    38   1 H        0.924     0.057     2.238     2.339
    39   1 H        0.925     0.050     2.324     2.384
    40   6 C        3.812    -0.099    22.384     6.734
    41   1 H        0.924     0.060     2.194     2.316
    42   1 H        0.924     0.074     2.044     2.236
    43   6 C        2.743     0.292    22.052     7.689
    44   8 O        0.858    -0.534    24.558     6.644
    45   7 N        2.639    -0.292    27.540     7.794
    46   1 H        0.861     0.238     0.930     1.511
    47   1 H        0.860     0.246     0.900     1.486
    48   6 C        2.750     0.267    22.501     7.767
    49   8 O        0.858    -0.527    24.383     6.620
    50   7 N        2.698    -0.184    24.983     7.423
    51   1 H        0.860     0.214     1.037     1.595
    52   6 C        3.795     0.025    20.161     6.394
    53   1 H        0.925     0.076     2.020     2.223
    54   6 C        3.810    -0.052    21.492     6.599
    55   1 H        0.924     0.045     2.384     2.415
    56   1 H        0.924     0.054     2.275     2.359
    57   6 C        3.803    -0.094    22.297     6.723
    58   1 H        0.925     0.045     2.385     2.415
    59   1 H        0.924     0.036     2.506     2.476
    60   6 C        2.687     0.364    20.822     7.468
    61   8 O        0.857    -0.660    27.644     7.049
    62   8 O        0.856    -0.668    27.849     7.075
    63   6 C        2.761     0.273    22.392     7.749
    64   8 O        0.858    -0.524    24.313     6.611
    65   7 N        2.690    -0.156    24.382     7.334
    66   1 H        0.860     0.212     1.048     1.604
    67   6 C        3.798     0.019    20.262     6.409
    68   1 H        0.925     0.083     1.943     2.180
    69   6 C        3.855    -0.018    20.852     6.495
    70   1 H        0.924     0.060     2.205     2.322
    71   6 C        3.756    -0.118    22.822     6.811
    72   1 H        0.925     0.034     2.530     2.488
    73   1 H        0.925     0.061     2.182     2.310
    74   1 H        0.925     0.041     2.432     2.439
    75   6 C        3.755    -0.122    22.885     6.821
    76   1 H        0.924     0.037     2.488     2.467
    77   1 H        0.923     0.045     2.388     2.417
    78   1 H        0.925     0.072     2.064     2.247
    79   6 C        2.752     0.267    22.492     7.766
    80   8 O        0.863    -0.522    24.281     6.607
    81   7 N        2.691    -0.163    24.529     7.356
    82   1 H        0.860     0.207     1.070     1.620
    83   6 C        3.811     0.025    20.145     6.389
    84   1 H        0.924     0.101     1.775     2.083
    85   6 C        3.861    -0.017    20.838     6.492
    86   1 H        0.925     0.069     2.092     2.262
    87   6 C        3.773    -0.125    22.934     6.824
    88   1 H        0.925     0.063     2.163     2.300
    89   1 H        0.925     0.044     2.400     2.423
    90   1 H        0.924     0.059     2.209     2.324
    91   6 C        3.801    -0.059    21.644     6.624
    92   1 H        0.924     0.044     2.395     2.420
    93   1 H        0.925     0.042     2.429     2.437
    94   6 C        3.750    -0.115    22.767     6.805
    95   1 H        0.924     0.043     2.404     2.425
    96   1 H        0.924     0.042     2.419     2.432
    97   1 H        0.925     0.050     2.323     2.383
    98   6 C        2.763     0.210    23.547     7.947
    99   8 O        0.856    -0.381    21.299     6.188
   100   7 N        2.633    -0.375    29.678     8.091
   101   1 H        0.861     0.175     1.245     1.748
   102   6 C        3.784     0.038    19.951     6.362
   103   1 H        0.925     0.080     1.984     2.203
   104   6 C        3.813    -0.067    21.780     6.643
   105   1 H        0.924     0.064     2.154     2.295
   106   1 H        0.924     0.051     2.311     2.377
   107   6 C        2.960     0.006    27.885     8.661
   108   6 C        2.920    -0.046    29.151     8.854
   109   1 H        0.925     0.045     2.387     2.416
   110   6 C        2.903    -0.081    30.012     8.983
   111   1 H        0.925     0.042     2.426     2.436
   112   6 C        2.839     0.137    25.000     8.194
   113   8 O        1.660    -0.472    22.298     6.375
   114   1 H        0.807     0.367     0.549     1.163
   115   6 C        2.910    -0.060    29.482     8.903
   116   1 H        0.926     0.043     2.409     2.427
   117   6 C        2.909    -0.045    29.114     8.848
   118   1 H        0.926     0.059     2.208     2.323
   119   6 C        2.759     0.199    23.757     7.982
   120   8 O        0.856    -0.395    21.588     6.229
   121   7 N        2.651    -0.361    29.294     8.038
   122   1 H        0.860     0.186     1.181     1.702
   123   6 C        3.785     0.045    19.842     6.345
   124   1 H        0.925     0.058     2.226     2.333
   125   6 C        3.806    -0.071    21.860     6.656
   126   1 H        0.925     0.052     2.297     2.370
   127   1 H        0.925     0.071     2.070     2.250
   128   6 C        3.057     0.043    26.990     8.520
   129   7 N        1.939    -0.325    29.257     8.021
   130   6 C        3.023     0.081    26.162     8.390
   131   1 H        0.925     0.052     2.293     2.368
   132   7 N        2.782    -0.113    23.460     7.194
   133   1 H        0.860     0.222     0.999     1.565
   134   6 C        3.035    -0.031    28.733     8.792
   135   1 H        0.925     0.036     2.504     2.475
   136   6 C        2.779     0.210    23.553     7.949
   137   8 O        0.856    -0.368    21.055     6.152
   138   7 N        2.632    -0.377    29.750     8.101
   139   1 H        0.860     0.158     1.346     1.817
   140   6 C        3.794     0.032    20.038     6.375
   141   1 H        0.925     0.051     2.305     2.374
   142   6 C        3.858    -0.024    20.960     6.511
   143   1 H        0.924     0.049     2.334     2.389
   144   6 C        3.758    -0.105    22.555     6.771
   145   1 H        0.924     0.021     2.721     2.580
   146   1 H        0.924     0.031     2.575     2.509
   147   1 H        0.925     0.056     2.242     2.342
   148   6 C        3.804    -0.053    21.527     6.605
   149   1 H        0.925     0.044     2.392     2.418
   150   1 H        0.925     0.019     2.754     2.595
   151   6 C        3.752    -0.107    22.614     6.781
   152   1 H        0.924     0.041     2.435     2.440
   153   1 H        0.925     0.032     2.557     2.500
   154   1 H        0.925     0.032     2.555     2.500
   155   6 C        2.753     0.274    22.372     7.745
   156   8 O        0.861    -0.528    24.407     6.624
   157   7 N        2.694    -0.166    24.588     7.365
   158   1 H        0.860     0.227     0.979     1.550
   159   6 C        3.797     0.025    20.156     6.393
   160   1 H        0.924     0.073     2.053     2.241
   161   6 C        3.855    -0.021    20.904     6.503
   162   1 H        0.924     0.055     2.262     2.352
   163   6 C        3.756    -0.124    22.932     6.828
   164   1 H        0.924     0.061     2.185     2.312
   165   1 H        0.925     0.062     2.173     2.305
   166   1 H        0.924     0.046     2.372     2.408
   167   6 C        3.804    -0.048    21.431     6.591
   168   1 H        0.924     0.018     2.758     2.597
   169   1 H        0.925     0.031     2.569     2.506
   170   6 C        3.750    -0.107    22.601     6.780
   171   1 H        0.925     0.026     2.638     2.540
   172   1 H        0.924     0.033     2.541     2.493
   173   1 H        0.924     0.050     2.325     2.385
   174   6 C        2.762     0.203    23.692     7.971
   175   8 O        0.857    -0.354    20.784     6.112
   176   1 H        0.860     0.192     1.145     1.677
   177   1 H        0.923     0.063     2.164     2.301
   178   1 H        0.860     0.154     1.376     1.838
   179   1 H        0.923     0.074     2.040     2.234
   180   1 H        0.860     0.180     1.212     1.725
   181   1 H        0.923     0.065     2.142     2.289
   182   1 H        0.860     0.163     1.319     1.799
   183   1 H        0.923     0.057     2.235     2.338
   184   1 H        0.860     0.176     1.238     1.743
   185   1 H        0.923     0.081     1.971     2.196

 Mol. C6AA /au·bohr⁶  :     329664.165889
 Mol. C8AA /au·bohr⁸  :    7377951.744522
 Mol. α(0) /au        :        866.678902


Wiberg/Mayer (AO) data.
largest (>0.10) Wiberg bond orders for each atom

 ---------------------------------------------------------------------------
     #   Z sym  total        # sym  WBO       # sym  WBO       # sym  WBO
 ---------------------------------------------------------------------------
     1   7 N    3.014 --     3 C    1.030     2 H    0.957   176 H    0.948
     2   1 H    0.975 --     1 N    0.957
     3   6 C    3.983 --     1 N    1.030     4 H    0.953     5 C    0.947
                            19 C    0.946
     4   1 H    0.994 --     3 C    0.953
     5   6 C    3.991 --     8 C    1.010     6 H    0.968     7 H    0.964
                             3 C    0.947
     6   1 H    0.994 --     5 C    0.968
     7   1 H    0.998 --     5 C    0.964
     8   6 C    3.988 --    17 C    1.415     9 C    1.408     5 C    1.010
                            13 C    0.108
     9   6 C    3.989 --    11 C    1.446     8 C    1.408    10 H    0.967
                            15 C    0.112
    10   1 H    0.998 --     9 C    0.967
    11   6 C    3.989 --     9 C    1.446    13 C    1.435    12 H    0.971
                            17 C    0.111
    12   1 H    0.997 --    11 C    0.971
    13   6 C    3.988 --    15 C    1.438    11 C    1.435    14 H    0.973
                             8 C    0.108
    14   1 H    0.998 --    13 C    0.973
    15   6 C    3.991 --    17 C    1.439    13 C    1.438    16 H    0.972
                             9 C    0.112
    16   1 H    0.999 --    15 C    0.972
    17   6 C    3.991 --    15 C    1.439     8 C    1.415    18 H    0.966
                            11 C    0.111
    18   1 H    1.000 --    17 C    0.966
    19   6 C    3.933 --    20 O    1.610    21 N    1.299     3 C    0.946
    20   8 O    1.914 --    19 C    1.610    21 N    0.191
    21   7 N    3.474 --    19 C    1.299    23 C    0.989    22 H    0.916
                            20 O    0.191
    22   1 H    0.955 --    21 N    0.916
    23   6 C    3.973 --    31 C    0.991    21 N    0.989    25 C    0.951
                            24 H    0.939
    24   1 H    0.992 --    23 C    0.939
    25   6 C    3.985 --    26 H    0.968    27 H    0.953    23 C    0.951
                            28 C    0.938
    26   1 H    0.998 --    25 C    0.968
    27   1 H    0.997 --    25 C    0.953
    28   6 C    3.937 --    30 O    1.492    29 O    1.483    25 C    0.938
    29   8 O    1.774 --    28 C    1.483    30 O    0.216
    30   8 O    1.783 --    28 C    1.492    29 O    0.216
    31   6 C    3.885 --    32 O    1.890    23 C    0.991   177 H    0.940
    32   8 O    2.049 --    31 C    1.890
    33   7 N    3.029 --    35 C    1.022   178 H    0.962    34 H    0.955
    34   1 H    0.970 --    33 N    0.955
    35   6 C    3.981 --    33 N    1.022    37 C    0.987    48 C    0.936
                            36 H    0.931
    36   1 H    0.995 --    35 C    0.931
    37   6 C    3.992 --    40 C    0.991    35 C    0.987    39 H    0.974
                            38 H    0.970
    38   1 H    0.997 --    37 C    0.970
    39   1 H    0.997 --    37 C    0.974
    40   6 C    3.994 --    37 C    0.991    43 C    0.974    41 H    0.969
                            42 H    0.960
    41   1 H    0.996 --    40 C    0.969
    42   1 H    0.994 --    40 C    0.960
    43   6 C    3.943 --    44 O    1.625    45 N    1.314    40 C    0.974
    44   8 O    1.913 --    43 C    1.625    45 N    0.195
    45   7 N    3.385 --    43 C    1.314    46 H    0.918    47 H    0.917
                            44 O    0.195
    46   1 H    0.943 --    45 N    0.918
    47   1 H    0.940 --    45 N    0.917
    48   6 C    3.935 --    49 O    1.625    50 N    1.281    35 C    0.936
    49   8 O    1.923 --    48 C    1.625    50 N    0.181
    50   7 N    3.442 --    48 C    1.281    52 C    0.980    51 H    0.910
                            49 O    0.181
    51   1 H    0.954 --    50 N    0.910
    52   6 C    3.968 --    50 N    0.980    54 C    0.978    53 H    0.955
                            63 C    0.937
    53   1 H    0.994 --    52 C    0.955
    54   6 C    3.992 --    57 C    1.000    52 C    0.978    55 H    0.972
                            56 H    0.970
    55   1 H    0.997 --    54 C    0.972
    56   1 H    0.997 --    54 C    0.970
    57   6 C    3.989 --    54 C    1.000    58 H    0.980    59 H    0.958
                            60 C    0.939
    58   1 H    0.998 --    57 C    0.980
    59   1 H    0.999 --    57 C    0.958
    60   6 C    3.932 --    61 O    1.485    62 O    1.483    57 C    0.939
    61   8 O    1.769 --    60 C    1.485    62 O    0.213
    62   8 O    1.768 --    60 C    1.483    61 O    0.213
    63   6 C    3.947 --    64 O    1.612    65 N    1.317    52 C    0.937
    64   8 O    1.919 --    63 C    1.612    65 N    0.194
    65   7 N    3.479 --    63 C    1.317    67 C    0.979    66 H    0.911
                            64 O    0.194
    66   1 H    0.955 --    65 N    0.911
    67   6 C    3.959 --    65 N    0.979    69 C    0.964    79 C    0.949
                            68 H    0.935
    68   1 H    0.993 --    67 C    0.935
    69   6 C    3.989 --    75 C    1.007    71 C    1.004    67 C    0.964
                            70 H    0.962
    70   1 H    0.996 --    69 C    0.962
    71   6 C    3.992 --    69 C    1.004    72 H    0.986    73 H    0.985
                            74 H    0.985
    72   1 H    0.999 --    71 C    0.986
    73   1 H    0.996 --    71 C    0.985
    74   1 H    0.998 --    71 C    0.985
    75   6 C    3.990 --    69 C    1.007    77 H    0.984    78 H    0.982
                            76 H    0.979
    76   1 H    0.999 --    75 C    0.979
    77   1 H    0.998 --    75 C    0.984
    78   1 H    0.995 --    75 C    0.982
    79   6 C    3.951 --    80 O    1.607    81 N    1.312    67 C    0.949
    80   8 O    1.916 --    79 C    1.607    81 N    0.194
    81   7 N    3.472 --    79 C    1.312    83 C    0.971    82 H    0.918
                            80 O    0.194
    82   1 H    0.957 --    81 N    0.918
    83   6 C    3.957 --    98 C    0.990    81 N    0.971    84 H    0.938
                            85 C    0.937
    84   1 H    0.989 --    83 C    0.938
    85   6 C    3.980 --    87 C    1.000    91 C    0.999    86 H    0.956
                            83 C    0.937
    86   1 H    0.995 --    85 C    0.956
    87   6 C    3.989 --    85 C    1.000    89 H    0.983    88 H    0.981
                            90 H    0.979
    88   1 H    0.996 --    87 C    0.981
    89   1 H    0.998 --    87 C    0.983
    90   1 H    0.995 --    87 C    0.979
    91   6 C    3.994 --    94 C    1.015    85 C    0.999    92 H    0.973
                            93 H    0.971
    92   1 H    0.998 --    91 C    0.973
    93   1 H    0.998 --    91 C    0.971
    94   6 C    3.993 --    91 C    1.015    97 H    0.987    95 H    0.986
                            96 H    0.985
    95   1 H    0.998 --    94 C    0.986
    96   1 H    0.998 --    94 C    0.985
    97   1 H    0.998 --    94 C    0.987
    98   6 C    3.887 --    99 O    1.880    83 C    0.990   179 H    0.935
    99   8 O    2.039 --    98 C    1.880
   100   7 N    3.013 --   102 C    1.033   180 H    0.953   101 H    0.953
   101   1 H    0.969 --   100 N    0.953
   102   6 C    3.987 --   100 N    1.033   119 C    0.984   104 C    0.956
                           103 H    0.924
   103   1 H    0.993 --   102 C    0.924
   104   6 C    3.989 --   107 C    1.008   106 H    0.970   105 H    0.959
                           102 C    0.956
   105   1 H    0.995 --   104 C    0.959
   106   1 H    0.997 --   104 C    0.970
   107   6 C    3.988 --   117 C    1.412   108 C    1.404   104 C    1.008
   108   6 C    3.989 --   110 C    1.454   107 C    1.404   109 H    0.969
                           115 C    0.108
   109   1 H    0.998 --   108 C    0.969
   110   6 C    3.984 --   108 C    1.454   112 C    1.365   111 H    0.967
                           117 C    0.108
   111   1 H    0.998 --   110 C    0.967
   112   6 C    3.929 --   115 C    1.376   110 C    1.365   113 O    1.058
   113   8 O    2.057 --   112 C    1.058   114 H    0.845
   114   1 H    0.865 --   113 O    0.845
   115   6 C    3.985 --   117 C    1.436   112 C    1.376   116 H    0.968
                           108 C    0.108
   116   1 H    0.998 --   115 C    0.968
   117   6 C    3.986 --   115 C    1.436   107 C    1.412   118 H    0.966
                           110 C    0.108
   118   1 H    0.996 --   117 C    0.966
   119   6 C    3.877 --   120 O    1.878   102 C    0.984   181 H    0.934
   120   8 O    2.033 --   119 C    1.878
   121   7 N    3.028 --   123 C    1.015   182 H    0.957   122 H    0.920
   122   1 H    0.965 --   121 N    0.920
   123   6 C    3.984 --   121 N    1.015   136 C    0.987   124 H    0.959
                           125 C    0.937
   124   1 H    0.996 --   123 C    0.959
   125   6 C    3.990 --   128 C    1.013   126 H    0.964   127 H    0.958
                           123 C    0.937
   126   1 H    0.997 --   125 C    0.964
   127   1 H    0.995 --   125 C    0.958
   128   6 C    3.974 --   134 C    1.571   129 N    1.258   125 C    1.013
   129   7 N    2.995 --   130 C    1.537   128 C    1.258   132 N    0.108
   130   6 C    3.956 --   129 N    1.537   132 N    1.282   131 H    0.964
                           134 C    0.115
   131   1 H    0.997 --   130 C    0.964
   132   7 N    3.584 --   130 C    1.282   134 C    1.201   133 H    0.922
                           129 N    0.108
   133   1 H    0.950 --   132 N    0.922
   134   6 C    3.938 --   128 C    1.571   132 N    1.201   135 H    0.965
                           130 C    0.115
   135   1 H    0.999 --   134 C    0.965
   136   6 C    3.876 --   137 O    1.874   123 C    0.987   183 H    0.940
   137   8 O    2.064 --   136 C    1.874
   138   7 N    3.000 --   140 C    1.020   184 H    0.954   139 H    0.952
   139   1 H    0.975 --   138 N    0.952
   140   6 C    3.984 --   138 N    1.020   142 C    0.956   155 C    0.954
                           141 H    0.947
   141   1 H    0.996 --   140 C    0.947
   142   6 C    3.992 --   144 C    1.007   148 C    0.994   143 H    0.963
                           140 C    0.956
   143   1 H    0.997 --   142 C    0.963
   144   6 C    3.993 --   142 C    1.007   146 H    0.985   145 H    0.981
                           147 H    0.980
   145   1 H    1.000 --   144 C    0.981
   146   1 H    0.999 --   144 C    0.985
   147   1 H    0.997 --   144 C    0.980
   148   6 C    3.996 --   151 C    1.019   142 C    0.994   150 H    0.976
                           149 H    0.975
   149   1 H    0.998 --   148 C    0.975
   150   1 H    1.000 --   148 C    0.976
   151   6 C    3.994 --   148 C    1.019   152 H    0.987   154 H    0.986
                           153 H    0.985
   152   1 H    0.998 --   151 C    0.987
   153   1 H    0.999 --   151 C    0.985
   154   1 H    0.999 --   151 C    0.986
   155   6 C    3.943 --   156 O    1.604   157 N    1.305   140 C    0.954
   156   8 O    1.911 --   155 C    1.604   157 N    0.185
   157   7 N    3.473 --   155 C    1.305   159 C    0.967   158 H    0.890
                           156 O    0.185
   158   1 H    0.949 --   157 N    0.890
   159   6 C    3.961 --   174 C    0.969   157 N    0.967   160 H    0.960
                           161 C    0.956
   160   1 H    0.994 --   159 C    0.960
   161   6 C    3.987 --   163 C    1.005   167 C    0.998   159 C    0.956
                           162 H    0.954
   162   1 H    0.997 --   161 C    0.954
   163   6 C    3.986 --   161 C    1.005   164 H    0.982   166 H    0.980
                           165 H    0.977
   164   1 H    0.996 --   163 C    0.982
   165   1 H    0.995 --   163 C    0.977
   166   1 H    0.998 --   163 C    0.980
   167   6 C    3.996 --   170 C    1.011   161 C    0.998   169 H    0.977
                           168 H    0.972
   168   1 H    1.000 --   167 C    0.972
   169   1 H    0.999 --   167 C    0.977
   170   6 C    3.991 --   167 C    1.011   171 H    0.985   172 H    0.984
                           173 H    0.980
   171   1 H    0.999 --   170 C    0.985
   172   1 H    0.999 --   170 C    0.984
   173   1 H    0.997 --   170 C    0.980
   174   6 C    3.866 --   175 O    1.889   159 C    0.969   185 H    0.936
   175   8 O    2.064 --   174 C    1.889
   176   1 H    0.963 --     1 N    0.948
   177   1 H    0.995 --    31 C    0.940
   178   1 H    0.976 --    33 N    0.962
   179   1 H    0.994 --    98 C    0.935
   180   1 H    0.967 --   100 N    0.953
   181   1 H    0.995 --   119 C    0.934
   182   1 H    0.973 --   121 N    0.957
   183   1 H    0.996 --   136 C    0.940
   184   1 H    0.969 --   138 N    0.954
   185   1 H    0.993 --   174 C    0.936
 ---------------------------------------------------------------------------

Topologies differ in total number of bonds
Writing topology from bond orders to xtbtopo.mol

molecular dipole:
                 x           y           z       tot (Debye)
 q only:      -67.438     -36.745    -206.012
   full:      -68.037     -37.013    -205.652     558.560
molecular quadrupole (traceless):
                xx          xy          yy          xz          yz          zz
 q only:     8649.234   -1902.095   11216.952  -10728.840   -5947.731  -19866.186
  q+dip:     8549.195   -1922.438   11219.633  -10791.424   -5979.131  -19768.828
   full:     8550.050   -1923.324   11221.562  -10791.037   -5976.296  -19771.612


           -------------------------------------------------
          | TOTAL ENERGY             -282.651183629080 Eh   |
          | GRADIENT NORM               0.243963404016 Eh/α |
          | HOMO-LUMO GAP               1.254828636312 eV   |
           -------------------------------------------------

------------------------------------------------------------------------
Note: The following floating-point exceptions are signalling: IEEE_UNDERFLOW_FLAG IEEE_DENORMAL
normal termination of xtb
 * finished run on 2026/01/05 at 09:07:06.104     
------------------------------------------------------------------------
 total:
 * wall-time:     0 d,  0 h,  0 min,  1.013 sec
 *  cpu-time:     0 d,  0 h,  0 min, 14.592 sec
 * ratio c/w:    14.405 speedup
 SCF:
 * wall-time:     0 d,  0 h,  0 min,  0.948 sec
 *  cpu-time:     0 d,  0 h,  0 min, 13.628 sec
 * ratio c/w:    14.369 speedup

