      -----------------------------------------------------------      
     |                   =====================                   |     
     |                           x T B                           |     
     |                   =====================                   |     
     |                         S. Grimme                         |     
     |          Mulliken Center for Theoretical Chemistry        |     
     |                    University of Bonn                     |     
      -----------------------------------------------------------      

   * xtb version 6.7.1 (edcfbbe) compiled by 'conda@c0858423619e' on 2025-09-04

   xtb is free software: you can redistribute it and/or modify it under
   the terms of the GNU Lesser General Public License as published by
   the Free Software Foundation, either version 3 of the License, or
   (at your option) any later version.
   
   xtb is distributed in the hope that it will be useful,
   but WITHOUT ANY WARRANTY; without even the implied warranty of
   MERCHANTABILITY or FITNESS FOR A PARTICULAR PURPOSE.  See the
   GNU Lesser General Public License for more details.
   
   Cite this work as:
   * C. Bannwarth, E. Caldeweyher, S. Ehlert, A. Hansen, P. Pracht,
     J. Seibert, S. Spicher, S. Grimme, WIREs Comput. Mol. Sci., 2020, 11,
     e01493. DOI: 10.1002/wcms.1493
   
   for GFN2-xTB:
   * C. Bannwarth, S. Ehlert and S. Grimme., J. Chem. Theory Comput., 2019,
     15, 1652-1671. DOI: 10.1021/acs.jctc.8b01176
   for GFN1-xTB:
   * S. Grimme, C. Bannwarth, P. Shushkov, J. Chem. Theory Comput., 2017,
     13, 1989-2009. DOI: 10.1021/acs.jctc.7b00118
   for GFN0-xTB:
   * P. Pracht, E. Caldeweyher, S. Ehlert, S. Grimme, ChemRxiv, 2019, preprint.
     DOI: 10.26434/chemrxiv.8326202.v1
   for GFN-FF:
   * S. Spicher and S. Grimme, Angew. Chem. Int. Ed., 2020, 59, 15665-15673.
     DOI: 10.1002/anie.202004239
   
   for ALPB and GBSA implicit solvation:
   * S. Ehlert, M. Stahn, S. Spicher, S. Grimme, J. Chem. Theory Comput.,
     2021, 17, 4250-4261. DOI: 10.1021/acs.jctc.1c00471
   
   for ddCOSMO and CPCM-X implicit solvation:
   * M. Stahn, S. Ehlert, S. Grimme, J. Phys. Chem. A,
     2023, XX, XXXX-XXXX. DOI: 10.1021/acs.jpca.3c04382
   
   for DFT-D4:
   * E. Caldeweyher, C. Bannwarth and S. Grimme, J. Chem. Phys., 2017,
     147, 034112. DOI: 10.1063/1.4993215
   * E. Caldeweyher, S. Ehlert, A. Hansen, H. Neugebauer, S. Spicher,
     C. Bannwarth and S. Grimme, J. Chem. Phys., 2019, 150, 154122.
     DOI: 10.1063/1.5090222
   * E. Caldeweyher, J.-M. Mewes, S. Ehlert and S. Grimme, Phys. Chem. Chem. Phys.
     2020, 22, 8499-8512. DOI: 10.1039/D0CP00502A
   
   for sTDA-xTB:
   * S. Grimme and C. Bannwarth, J. Chem. Phys., 2016, 145, 054103.
     DOI: 10.1063/1.4959605
   
   in the mass-spec context:
   * V. Asgeirsson, C. Bauer and S. Grimme, Chem. Sci., 2017, 8, 4879.
     DOI: 10.1039/c7sc00601b
   * J. Koopman and S. Grimme, ACS Omega 2019, 4, 12, 15120-15133.
     DOI: 10.1021/acsomega.9b02011
   
   for metadynamics refer to:
   * S. Grimme, J. Chem. Theory Comput., 2019, 155, 2847-2862
     DOI: 10.1021/acs.jctc.9b00143
   
   for SPH calculations refer to:
   * S. Spicher and S. Grimme, J. Chem. Theory Comput., 2021, 17, 1701-1714
     DOI: 10.1021/acs.jctc.0c01306
   
   for ONIOM refer to:
   * C. Plett, A. Katbashev, S. Ehlert, S. Grimme, M. Bursch,
     Phys. Chem. Chem. Phys., 2023, 25, 17860-17868. DOI: 10.1039/D3CP02178E
   
   for DIPRO refer to:
   * J. Kohn, N. Gildemeister, S. Grimme, D. Fazzi, A. Hansen,
     J. Chem. Phys., 2023, just accepted.
   
   for PTB refer to:
   * S. Grimme, M. Mueller, A. Hansen, J. Chem. Phys., 2023, 158, 124111.
     DOI: 10.1063/5.0137838
   
   with help from (in alphabetical order)
   P. Atkinson, C. Bannwarth, F. Bohle, G. Brandenburg, E. Caldeweyher
   M. Checinski, S. Dohm, S. Ehlert, S. Ehrlich, I. Gerasimov, C. Hölzer
   A. Katbashev, J. Kohn, J. Koopman, C. Lavigne, S. Lehtola, F. März, M. Müller,
   F. Musil, H. Neugebauer, J. Pisarek, C. Plett, P. Pracht, F. Pultar,
   J. Seibert, P. Shushkov, S. Spicher, M. Stahn, M. Steiner, T. Strunk,
   J. Stückrath, T. Rose, and J. Unsleber
   
 * started run on 2026/01/05 at 09:06:45.710     
   ID    Z sym.   atoms
    1    7 N      1, 22, 42, 54, 67, 70, 73, 78, 98, 113, 134, 142, 145, 151
    2    1 H      2, 4, 6, 7, 10, 12, 15, 17, 19, 23, 25, 27, 28, 31, 33, 35,
                  37, 39, 43, 45, 47, 48, 55, 57, 59, 60, 62, 63, 65, 66, 68,
                  71, 72, 74, 75, 79, 81, 83, 84, 87, 89, 91, 93, 95, 99,
                  101, 103, 104, 106, 107, 114, 116, 118, 119, 122, 124, 127,
                  129, 131, 135, 137, 139, 140, 144, 146, 148, 152, 154, 156,
                  158-160, 162, 163, 165-167, 170-185
    3    6 C      3, 5, 8, 9, 11, 13, 16, 18, 20, 24, 26, 29, 30, 32, 34, 36,
                  38, 40, 44, 46, 49, 52, 56, 58, 61, 64, 69, 76, 80, 82, 85,
                  86, 88, 90, 92, 94, 96, 100, 102, 105, 108, 111, 115, 117,
                  120, 121, 123, 125, 128, 130, 132, 136, 138, 141, 143, 147,
                  149, 153, 155, 157, 161, 164, 168
    4    8 O      14, 21, 41, 50, 51, 53, 77, 97, 109, 110, 112, 126, 133,
                  150, 169

           -------------------------------------------------
          |                Calculation Setup                |
           -------------------------------------------------

          program call               : xtb /home/antonio_mesquita/Documentos/gmx_ISA_project/testes_arquivos_primeiros/gmx_ISA_testes/testes_qm_xtb/QM_analysis/QM_FRAMES_CAPPED/frame_200ps/residues_pocket_capped_200ps.xyz --gfn 2 --alpb water --chrg -1 --etemp 1500 --cycles 1000
          coordinate file            : /home/antonio_mesquita/Documentos/gmx_ISA_project/testes_arquivos_primeiros/gmx_ISA_testes/testes_qm_xtb/QM_analysis/QM_FRAMES_CAPPED/frame_200ps/residues_pocket_capped_200ps.xyz
          omp threads                :                    16


molecular fragmentation (1/2 indicates fragments):
111111111111111111111222222222222222222222222222222222222222222222222222
222222222222222222222222222222222222222222222222222222222222222222222222
22222222222222222222222221122222222222222
# atoms in fragment 1/2:    23   162
 fragment masses (1/2) :      165.19     1121.31
CMA distance (Bohr)    :  12.531
constraining FC (au)   :  0.0500

           -------------------------------------------------
          |                 G F N 2 - x T B                 |
           -------------------------------------------------

        Reference                      10.1021/acs.jctc.8b01176
      * Hamiltonian:
        H0-scaling (s, p, d)           1.850000    2.230000    2.230000
        zeta-weighting                 0.500000
      * Dispersion:
        s8                             2.700000
        a1                             0.520000
        a2                             5.000000
        s9                             5.000000
      * Repulsion:
        kExp                           1.500000    1.000000
        rExp                           1.000000
      * Coulomb:
        alpha                          2.000000
        third order                    shell-resolved
        anisotropic                    true
        a3                             3.000000
        a5                             4.000000
        cn-shift                       1.200000
        cn-exp                         4.000000
        max-rad                        5.000000

      * Solvation model:               ALPB
        Solvent                        water
        Parameter file                 internal GFN2-xTB/ALPB
        Dielectric constant                8.0200E+01
        Reference state                gsolv [1 M gas/solution]
        Free energy shift                  1.0808E-03 Eh       6.7819E-01 kcal/mol
        Temperature                        2.9815E+02 K
        Density                            1.0000E+00 kg/L
        Solvent mass                       1.8000E+01 g/mol
        Interaction kernel             P16
        Born radius scaling (c1)           1.4744E+00
        Born radii integrator          GBOBC
        Born offset                        0.0000E+00 a0       0.0000E+00 AA
        H-bond correction              true
        Ion screening                  false
        Surface tension                    1.0000E-05 Eh       1.5569E+01 dyn/cm
        Grid points                               230 per atom

          ...................................................
          :                      SETUP                      :
          :.................................................:
          :  # basis functions                 461          :
          :  # atomic orbitals                 461          :
          :  # shells                          277          :
          :  # electrons                       506          :
          :  max. iterations                   250          :
          :  Hamiltonian                  GFN2-xTB          :
          :  restarted?                      false          :
          :  GBSA solvation                   true          :
          :  PC potential                    false          :
          :  electronic temp.         1500.0000000     K    :
          :  accuracy                    1.0000000          :
          :  -> integral cutoff          0.2500000E+02      :
          :  -> integral neglect         0.1000000E-07      :
          :  -> SCF convergence          0.1000000E-05 Eh   :
          :  -> wf. convergence          0.1000000E-03 e    :
          :  Broyden damping             0.4000000          :
          :  net charge                         -1          :
          :  unpaired electrons                  0          :
          ...................................................

 iter      E             dE          RMSdq      gap      omega  full diag
   1   -287.2100121 -0.287210E+03  0.457E+00    1.72       0.0  T
   2   -287.6971861 -0.487174E+00  0.234E+00    1.01       1.0  T
   3   -287.7127591 -0.155730E-01  0.130E+00    1.74       1.0  T
   4   -287.7593522 -0.465931E-01  0.245E-01    1.24       1.0  T
   5   -287.7633111 -0.395887E-02  0.115E-01    1.29       1.0  T
   6   -287.7637223 -0.411187E-03  0.607E-02    1.26       1.0  T
   7   -287.7638728 -0.150505E-03  0.229E-02    1.25       1.0  T
   8   -287.7638862 -0.134501E-04  0.802E-03    1.26       1.0  T
   9   -287.7638885 -0.230293E-05  0.410E-03    1.25       1.8  T
  10   -287.7638892 -0.675465E-06  0.190E-03    1.25       3.9  T
  11   -287.7638893 -0.110402E-06  0.908E-04    1.25       8.1  T
  12   -287.7638894 -0.389756E-07  0.362E-04    1.25      20.3  T

   *** convergence criteria satisfied after 12 iterations ***

         #    Occupation            Energy/Eh            Energy/eV
      -------------------------------------------------------------
         1        2.0000           -0.7315536             -19.9066
       ...           ...                  ...                  ...
       247        1.9982           -0.3467702              -9.4361
       248        1.9981           -0.3464656              -9.4278
       249        1.9978           -0.3457150              -9.4074
       250        1.9975           -0.3451671              -9.3925
       251        1.9973           -0.3448382              -9.3835
       252        1.9950           -0.3418305              -9.3017
       253        1.9863           -0.3370551              -9.1717 (HOMO)
       254        0.0181           -0.2910953              -7.9211 (LUMO)
       255        0.0033           -0.2830325              -7.7017
       256        0.0023           -0.2811782              -7.6512
       257        0.0020           -0.2805895              -7.6352
       258        0.0017           -0.2799000              -7.6165
       ...           ...                  ...                  ...
       461                          0.6343965              17.2628
      -------------------------------------------------------------
                  HL-Gap            0.0459598 Eh            1.2506 eV
             Fermi-level           -0.3134072 Eh           -8.5282 eV

 SCC (total)                   0 d,  0 h,  0 min,  1.750 sec
 SCC setup                      ...        0 min,  0.010 sec (  0.573%)
 Dispersion                     ...        0 min,  0.015 sec (  0.872%)
 classical contributions        ...        0 min,  0.003 sec (  0.147%)
 integral evaluation            ...        0 min,  0.045 sec (  2.545%)
 iterations                     ...        0 min,  1.519 sec ( 86.788%)
 molecular gradient             ...        0 min,  0.141 sec (  8.077%)
 printout                       ...        0 min,  0.017 sec (  0.995%)

         :::::::::::::::::::::::::::::::::::::::::::::::::::::
         ::                     SUMMARY                     ::
         :::::::::::::::::::::::::::::::::::::::::::::::::::::
         :: total energy            -284.192692944820 Eh    ::
         :: total w/o Gsasa/hb      -284.160709944696 Eh    ::
         :: gradient norm              0.262511711905 Eh/a0 ::
         :: HOMO-LUMO gap              1.250628683748 eV    ::
         ::.................................................::
         :: SCC energy              -287.757777272748 Eh    ::
         :: -> isotropic ES            0.853879684854 Eh    ::
         :: -> anisotropic ES          0.026066103114 Eh    ::
         :: -> anisotropic XC          0.129482347306 Eh    ::
         :: -> dispersion             -0.182712356811 Eh    ::
         :: -> Gsolv                  -0.247682436936 Eh    ::
         ::    -> Gelec               -0.215699436812 Eh    ::
         ::    -> Gsasa                0.009174094092 Eh    ::
         ::    -> Ghb                 -0.042237853914 Eh    ::
         ::    -> Gshift               0.001080759698 Eh    ::
         :: repulsion energy           3.565084327927 Eh    ::
         :: add. restraining           0.000000000000 Eh    ::
         :: total charge              -0.999999999911 e     ::
         :::::::::::::::::::::::::::::::::::::::::::::::::::::

           -------------------------------------------------
          |                Property Printout                |
           -------------------------------------------------

    * Orbital Energies and Occupations

         #    Occupation            Energy/Eh            Energy/eV
      -------------------------------------------------------------
         1        2.0000           -0.7315536             -19.9066
       ...           ...                  ...                  ...
       241        2.0000           -0.3775678             -10.2741
       242        2.0000           -0.3754887             -10.2176
       243        2.0000           -0.3715848             -10.1113
       244        2.0000           -0.3699025             -10.0656
       245        1.9999           -0.3588391              -9.7645
       246        1.9988           -0.3488169              -9.4918
       247        1.9982           -0.3467702              -9.4361
       248        1.9981           -0.3464656              -9.4278
       249        1.9978           -0.3457150              -9.4074
       250        1.9975           -0.3451671              -9.3925
       251        1.9973           -0.3448382              -9.3835
       252        1.9950           -0.3418305              -9.3017
       253        1.9863           -0.3370551              -9.1717 (HOMO)
       254        0.0181           -0.2910953              -7.9211 (LUMO)
       255        0.0033           -0.2830325              -7.7017
       256        0.0023           -0.2811782              -7.6512
       257        0.0020           -0.2805895              -7.6352
       258        0.0017           -0.2799000              -7.6165
       259        0.0016           -0.2794990              -7.6056
       260        0.0013           -0.2786801              -7.5833
       261        0.0008           -0.2761268              -7.5138
       262                         -0.2296055              -6.2479
       263                         -0.2265653              -6.1652
       264                         -0.2242193              -6.1013
       ...                                ...                  ...
       461                          0.6343965              17.2628
      -------------------------------------------------------------
                  HL-Gap            0.0459598 Eh            1.2506 eV
             Fermi-level           -0.3134072 Eh           -8.5282 eV

     #   Z          covCN         q      C6AA      α(0)
     1   7 N        2.635    -0.361    29.321     8.042
     2   1 H        0.860     0.165     1.302     1.788
     3   6 C        3.784     0.042    19.892     6.353
     4   1 H        0.924     0.062     2.179     2.309
     5   6 C        3.808    -0.078    21.985     6.675
     6   1 H        0.925     0.072     2.069     2.249
     7   1 H        0.924     0.050     2.315     2.379
     8   6 C        2.954     0.001    28.007     8.680
     9   6 C        2.920    -0.040    28.987     8.829
    10   1 H        0.925     0.019     2.749     2.593
    11   6 C        2.905    -0.069    29.722     8.939
    12   1 H        0.926     0.024     2.672     2.556
    13   6 C        2.840     0.140    24.935     8.183
    14   8 O        1.659    -0.444    21.722     6.292
    15   1 H        0.806     0.344     0.602     1.218
    16   6 C        2.903    -0.067    29.660     8.930
    17   1 H        0.926     0.054     2.269     2.355
    18   6 C        2.924    -0.047    29.158     8.855
    19   1 H        0.926     0.047     2.352     2.398
    20   6 C        2.758     0.209    23.575     7.951
    21   8 O        0.857    -0.371    21.117     6.161
    22   7 N        2.637    -0.370    29.554     8.074
    23   1 H        0.860     0.155     1.368     1.832
    24   6 C        3.784     0.041    19.902     6.355
    25   1 H        0.924     0.072     2.068     2.249
    26   6 C        3.810    -0.073    21.893     6.660
    27   1 H        0.924     0.064     2.155     2.296
    28   1 H        0.924     0.049     2.326     2.385
    29   6 C        2.951     0.007    27.871     8.659
    30   6 C        2.930    -0.045    29.108     8.848
    31   1 H        0.926     0.041     2.433     2.439
    32   6 C        2.904    -0.041    29.008     8.831
    33   1 H        0.925     0.045     2.386     2.415
    34   6 C        2.920    -0.038    28.938     8.822
    35   1 H        0.925     0.030     2.583     2.513
    36   6 C        2.903    -0.038    28.934     8.820
    37   1 H        0.925     0.033     2.549     2.497
    38   6 C        2.931    -0.040    28.988     8.830
    39   1 H        0.926     0.017     2.772     2.604
    40   6 C        2.752     0.271    22.429     7.755
    41   8 O        0.879    -0.534    24.544     6.643
    42   7 N        2.720    -0.157    24.389     7.335
    43   1 H        0.860     0.197     1.121     1.659
    44   6 C        3.788     0.038    19.941     6.360
    45   1 H        0.925     0.106     1.730     2.057
    46   6 C        3.829    -0.081    22.031     6.679
    47   1 H        0.925     0.035     2.520     2.483
    48   1 H        0.925     0.064     2.153     2.295
    49   6 C        2.687     0.359    20.910     7.484
    50   8 O        0.857    -0.616    26.523     6.905
    51   8 O        0.857    -0.612    26.414     6.891
    52   6 C        2.765     0.207    23.602     7.956
    53   8 O        0.856    -0.378    21.241     6.179
    54   7 N        2.630    -0.369    29.518     8.069
    55   1 H        0.860     0.175     1.243     1.747
    56   6 C        3.784     0.032    20.048     6.378
    57   1 H        0.924     0.095     1.830     2.116
    58   6 C        3.812    -0.071    21.849     6.653
    59   1 H        0.925     0.059     2.212     2.326
    60   1 H        0.924     0.057     2.234     2.338
    61   6 C        3.804    -0.081    22.044     6.684
    62   1 H        0.924     0.067     2.119     2.277
    63   1 H        0.924     0.057     2.230     2.335
    64   6 C        3.735    -0.021    21.042     6.547
    65   1 H        0.925     0.083     1.949     2.183
    66   1 H        0.924     0.082     1.959     2.189
    67   7 N        2.695    -0.145    24.143     7.298
    68   1 H        0.860     0.232     0.957     1.533
    69   6 C        2.733     0.242    22.942     7.842
    70   7 N        2.649    -0.252    26.544     7.652
    71   1 H        0.860     0.239     0.929     1.510
    72   1 H        0.860     0.238     0.929     1.510
    73   7 N        2.654    -0.262    26.784     7.686
    74   1 H        0.860     0.231     0.962     1.536
    75   1 H        0.860     0.248     0.890     1.478
    76   6 C        2.765     0.200    23.744     7.980
    77   8 O        0.856    -0.416    22.000     6.289
    78   7 N        2.638    -0.364    29.390     8.052
    79   1 H        0.860     0.171     1.266     1.763
    80   6 C        3.785     0.041    19.898     6.354
    81   1 H        0.925     0.072     2.062     2.246
    82   6 C        3.815    -0.070    21.819     6.648
    83   1 H        0.924     0.050     2.323     2.384
    84   1 H        0.925     0.091     1.870     2.139
    85   6 C        2.959     0.010    27.802     8.648
    86   6 C        2.922    -0.042    29.044     8.838
    87   1 H        0.925     0.028     2.621     2.532
    88   6 C        2.907    -0.041    29.012     8.832
    89   1 H        0.926     0.031     2.572     2.508
    90   6 C        2.909    -0.044    29.090     8.844
    91   1 H        0.926     0.030     2.590     2.517
    92   6 C        2.913    -0.038    28.956     8.824
    93   1 H        0.926     0.045     2.385     2.415
    94   6 C        2.918    -0.043    29.068     8.841
    95   1 H        0.926     0.056     2.241     2.341
    96   6 C        2.756     0.202    23.696     7.971
    97   8 O        0.856    -0.394    21.565     6.226
    98   7 N        2.632    -0.374    29.664     8.089
    99   1 H        0.860     0.160     1.337     1.811
   100   6 C        3.785     0.033    20.042     6.377
   101   1 H        0.924     0.083     1.948     2.183
   102   6 C        3.808    -0.051    21.479     6.597
   103   1 H        0.924     0.059     2.207     2.323
   104   1 H        0.924     0.037     2.489     2.467
   105   6 C        3.803    -0.085    22.124     6.696
   106   1 H        0.924     0.019     2.754     2.595
   107   1 H        0.925     0.034     2.525     2.485
   108   6 C        2.688     0.361    20.868     7.476
   109   8 O        0.856    -0.663    27.714     7.058
   110   8 O        0.857    -0.670    27.912     7.083
   111   6 C        2.760     0.204    23.670     7.967
   112   8 O        0.856    -0.399    21.663     6.240
   113   7 N        2.642    -0.377    29.727     8.098
   114   1 H        0.860     0.169     1.279     1.772
   115   6 C        3.786     0.042    19.887     6.352
   116   1 H        0.925     0.074     2.042     2.234
   117   6 C        3.834    -0.065    21.724     6.631
   118   1 H        0.924     0.051     2.304     2.373
   119   1 H        0.925     0.063     2.160     2.298
   120   6 C        2.969     0.001    27.990     8.678
   121   6 C        2.904    -0.044    29.087     8.843
   122   1 H        0.926     0.053     2.286     2.364
   123   6 C        2.926    -0.060    29.503     8.908
   124   1 H        0.926     0.043     2.405     2.425
   125   6 C        2.828     0.141    24.911     8.179
   126   8 O        1.660    -0.455    21.940     6.323
   127   1 H        0.806     0.371     0.542     1.157
   128   6 C        2.914    -0.077    29.917     8.969
   129   1 H        0.926     0.047     2.359     2.402
   130   6 C        2.910    -0.049    29.210     8.862
   131   1 H        0.925     0.046     2.368     2.407
   132   6 C        2.769     0.201    23.716     7.976
   133   8 O        0.856    -0.403    21.748     6.252
   134   7 N        2.639    -0.355    29.137     8.017
   135   1 H        0.860     0.156     1.359     1.826
   136   6 C        3.787     0.044    19.846     6.345
   137   1 H        0.924     0.060     2.205     2.322
   138   6 C        3.808    -0.072    21.877     6.658
   139   1 H        0.924     0.049     2.327     2.385
   140   1 H        0.925     0.061     2.192     2.315
   141   6 C        3.162     0.044    26.679     8.443
   142   7 N        1.896    -0.337    29.606     8.067
   143   6 C        3.086     0.078    26.157     8.384
   144   1 H        0.925     0.048     2.340     2.392
   145   7 N        2.814    -0.097    23.128     7.143
   146   1 H        0.860     0.223     0.995     1.563
   147   6 C        2.998    -0.025    28.618     8.775
   148   1 H        0.925     0.041     2.438     2.442
   149   6 C        2.762     0.213    23.487     7.937
   150   8 O        0.858    -0.364    20.983     6.142
   151   7 N        2.642    -0.369    29.525     8.070
   152   1 H        0.860     0.167     1.290     1.779
   153   6 C        3.786     0.036    19.987     6.368
   154   1 H        0.925     0.074     2.046     2.237
   155   6 C        3.870    -0.024    20.961     6.510
   156   1 H        0.925     0.065     2.142     2.289
   157   6 C        3.757    -0.105    22.553     6.771
   158   1 H        0.923     0.043     2.405     2.425
   159   1 H        0.925     0.048     2.339     2.392
   160   1 H        0.925     0.027     2.625     2.533
   161   6 C        3.809    -0.055    21.546     6.607
   162   1 H        0.924     0.013     2.844     2.637
   163   1 H        0.925     0.026     2.650     2.546
   164   6 C        3.753    -0.117    22.793     6.808
   165   1 H        0.925     0.044     2.391     2.418
   166   1 H        0.924     0.041     2.434     2.440
   167   1 H        0.925     0.041     2.437     2.441
   168   6 C        2.756     0.209    23.562     7.949
   169   8 O        0.857    -0.395    21.581     6.228
   170   1 H        0.860     0.181     1.210     1.723
   171   1 H        0.923     0.050     2.319     2.381
   172   1 H        0.860     0.182     1.201     1.717
   173   1 H        0.923     0.072     2.059     2.244
   174   1 H        0.860     0.172     1.261     1.759
   175   1 H        0.923     0.048     2.339     2.392
   176   1 H        0.860     0.170     1.275     1.769
   177   1 H        0.923     0.039     2.464     2.455
   178   1 H        0.860     0.194     1.139     1.672
   179   1 H        0.923     0.060     2.203     2.321
   180   1 H        0.860     0.170     1.271     1.766
   181   1 H        0.923     0.058     2.217     2.328
   182   1 H        0.860     0.171     1.264     1.761
   183   1 H        0.923     0.065     2.141     2.288
   184   1 H        0.860     0.178     1.225     1.734
   185   1 H        0.923     0.056     2.243     2.342

 Mol. C6AA /au·bohr⁶  :     343610.784904
 Mol. C8AA /au·bohr⁸  :    7800215.019990
 Mol. α(0) /au        :        896.826389


Wiberg/Mayer (AO) data.
largest (>0.10) Wiberg bond orders for each atom

 ---------------------------------------------------------------------------
     #   Z sym  total        # sym  WBO       # sym  WBO       # sym  WBO
 ---------------------------------------------------------------------------
     1   7 N    3.028 --     3 C    1.027     2 H    0.958   170 H    0.952
     2   1 H    0.973 --     1 N    0.958
     3   6 C    3.986 --     1 N    1.027    20 C    0.976     4 H    0.955
                             5 C    0.942
     4   1 H    0.996 --     3 C    0.955
     5   6 C    3.985 --     8 C    1.011     6 H    0.963     7 H    0.959
                             3 C    0.942
     6   1 H    0.995 --     5 C    0.963
     7   1 H    0.997 --     5 C    0.959
     8   6 C    3.987 --     9 C    1.407    18 C    1.406     5 C    1.011
     9   6 C    3.991 --    11 C    1.451     8 C    1.407    10 H    0.965
                            16 C    0.105
    10   1 H    1.000 --     9 C    0.965
    11   6 C    3.984 --     9 C    1.451    13 C    1.361    12 H    0.966
                            18 C    0.110
    12   1 H    0.999 --    11 C    0.966
    13   6 C    3.936 --    16 C    1.371    11 C    1.361    14 O    1.073
    14   8 O    2.095 --    13 C    1.073    15 H    0.812
    15   1 H    0.881 --    14 O    0.812
    16   6 C    3.984 --    18 C    1.444    13 C    1.371    17 H    0.969
                             9 C    0.105
    17   1 H    0.997 --    16 C    0.969
    18   6 C    3.988 --    16 C    1.444     8 C    1.406    19 H    0.969
                            11 C    0.110
    19   1 H    0.998 --    18 C    0.969
    20   6 C    3.885 --    21 O    1.897     3 C    0.976   171 H    0.937
    21   8 O    2.052 --    20 C    1.897
    22   7 N    3.017 --    24 C    1.024   172 H    0.951    23 H    0.950
    23   1 H    0.976 --    22 N    0.950
    24   6 C    3.983 --    22 N    1.024    40 C    0.954    26 C    0.953
                            25 H    0.951
    25   1 H    0.994 --    24 C    0.951
    26   6 C    3.987 --    29 C    1.013    27 H    0.966    24 C    0.953
                            28 H    0.952
    27   1 H    0.995 --    26 C    0.966
    28   1 H    0.998 --    26 C    0.952
    29   6 C    3.987 --    30 C    1.422    38 C    1.396    26 C    1.013
                            34 C    0.107
    30   6 C    3.989 --    32 C    1.430    29 C    1.422    31 H    0.969
                            36 C    0.109
    31   1 H    0.998 --    30 C    0.969
    32   6 C    3.988 --    34 C    1.446    30 C    1.430    33 H    0.970
                            38 C    0.114
    33   1 H    0.998 --    32 C    0.970
    34   6 C    3.989 --    32 C    1.446    36 C    1.429    35 H    0.971
                            29 C    0.107
    35   1 H    0.998 --    34 C    0.971
    36   6 C    3.991 --    38 C    1.451    34 C    1.429    37 H    0.971
                            30 C    0.109
    37   1 H    0.999 --    36 C    0.971
    38   6 C    3.990 --    36 C    1.451    29 C    1.396    39 H    0.965
                            32 C    0.114
    39   1 H    1.000 --    38 C    0.965
    40   6 C    3.934 --    41 O    1.599    42 N    1.302    24 C    0.954
    41   8 O    1.904 --    40 C    1.599    42 N    0.186
    42   7 N    3.476 --    40 C    1.302    44 C    0.986    43 H    0.914
                            41 O    0.186
    43   1 H    0.961 --    42 N    0.914
    44   6 C    3.967 --    52 C    1.006    42 N    0.986    46 C    0.934
                            45 H    0.931
    45   1 H    0.988 --    44 C    0.931
    46   6 C    3.980 --    47 H    0.972    49 C    0.947    48 H    0.942
                            44 C    0.934
    47   1 H    0.999 --    46 C    0.972
    48   1 H    0.996 --    46 C    0.942
    49   6 C    3.941 --    51 O    1.514    50 O    1.441    46 C    0.947
    50   8 O    1.840 --    49 C    1.441    51 O    0.212
    51   8 O    1.833 --    49 C    1.514    50 O    0.212
    52   6 C    3.881 --    53 O    1.864    44 C    1.006   173 H    0.937
    53   8 O    2.034 --    52 C    1.864
    54   7 N    3.025 --    56 C    1.038   174 H    0.957    55 H    0.952
    55   1 H    0.969 --    54 N    0.952
    56   6 C    3.983 --    54 N    1.038    76 C    0.991    58 C    0.951
                            57 H    0.918
    57   1 H    0.991 --    56 C    0.918
    58   6 C    3.988 --    61 C    1.004    60 H    0.972    59 H    0.971
                            56 C    0.951
    59   1 H    0.996 --    58 C    0.971
    60   1 H    0.997 --    58 C    0.972
    61   6 C    3.990 --    58 C    1.004    64 C    0.998    63 H    0.972
                            62 H    0.972
    62   1 H    0.996 --    61 C    0.972
    63   1 H    0.996 --    61 C    0.972
    64   6 C    3.952 --    61 C    0.998    67 N    0.984    66 H    0.966
                            65 H    0.963
    65   1 H    0.992 --    64 C    0.963
    66   1 H    0.993 --    64 C    0.966
    67   7 N    3.442 --    69 C    1.290    64 C    0.984    68 H    0.917
    68   1 H    0.946 --    67 N    0.917
    69   6 C    3.974 --    70 N    1.332    73 N    1.321    67 N    1.290
    70   7 N    3.408 --    69 C    1.332    71 H    0.921    72 H    0.889
                            73 N    0.105
    71   1 H    0.943 --    70 N    0.921
    72   1 H    0.943 --    70 N    0.889
    73   7 N    3.394 --    69 C    1.321    74 H    0.926    75 H    0.883
                            70 N    0.105
    74   1 H    0.947 --    73 N    0.926
    75   1 H    0.938 --    73 N    0.883
    76   6 C    3.878 --    77 O    1.855    56 C    0.991   175 H    0.939
    77   8 O    2.015 --    76 C    1.855
    78   7 N    3.038 --    80 C    1.024   176 H    0.957    79 H    0.957
    79   1 H    0.971 --    78 N    0.957
    80   6 C    3.985 --    78 N    1.024    96 C    0.975    82 C    0.956
                            81 H    0.941
    81   1 H    0.995 --    80 C    0.941
    82   6 C    3.987 --    85 C    1.007    83 H    0.974    80 C    0.956
                            84 H    0.952
    83   1 H    0.997 --    82 C    0.974
    84   1 H    0.992 --    82 C    0.952
    85   6 C    3.988 --    86 C    1.421    94 C    1.408    82 C    1.007
                            90 C    0.108
    86   6 C    3.991 --    88 C    1.432    85 C    1.421    87 H    0.970
                            92 C    0.112
    87   1 H    0.999 --    86 C    0.970
    88   6 C    3.991 --    90 C    1.448    86 C    1.432    89 H    0.973
                            94 C    0.113
    89   1 H    0.999 --    88 C    0.973
    90   6 C    3.990 --    88 C    1.448    92 C    1.429    91 H    0.973
                            85 C    0.108
    91   1 H    0.999 --    90 C    0.973
    92   6 C    3.989 --    94 C    1.449    90 C    1.429    93 H    0.971
                            86 C    0.112
    93   1 H    0.998 --    92 C    0.971
    94   6 C    3.989 --    92 C    1.449    85 C    1.408    95 H    0.964
                            88 C    0.113
    95   1 H    0.997 --    94 C    0.964
    96   6 C    3.879 --    97 O    1.877    80 C    0.975   177 H    0.940
    97   8 O    2.032 --    96 C    1.877
    98   7 N    3.016 --   100 C    1.038    99 H    0.957   178 H    0.948
    99   1 H    0.974 --    98 N    0.957
   100   6 C    3.988 --    98 N    1.038   111 C    0.982   102 C    0.951
                           101 H    0.934
   101   1 H    0.993 --   100 C    0.934
   102   6 C    3.993 --   105 C    1.012   104 H    0.975   103 H    0.971
                           100 C    0.951
   103   1 H    0.996 --   102 C    0.971
   104   1 H    0.999 --   102 C    0.975
   105   6 C    3.995 --   102 C    1.012   106 H    0.969   107 H    0.960
                           108 C    0.937
   106   1 H    1.000 --   105 C    0.969
   107   1 H    0.999 --   105 C    0.960
   108   6 C    3.932 --   109 O    1.486   110 O    1.483   105 C    0.937
   109   8 O    1.771 --   108 C    1.486   110 O    0.212
   110   8 O    1.765 --   108 C    1.483   109 O    0.212
   111   6 C    3.875 --   112 O    1.872   100 C    0.982   179 H    0.935
   112   8 O    2.032 --   111 C    1.872
   113   7 N    3.017 --   115 C    1.029   180 H    0.955   114 H    0.953
   114   1 H    0.971 --   113 N    0.953
   115   6 C    3.984 --   113 N    1.029   132 C    0.983   116 H    0.942
                           117 C    0.939
   116   1 H    0.994 --   115 C    0.942
   117   6 C    3.989 --   120 C    1.003   119 H    0.967   118 H    0.965
                           115 C    0.939
   118   1 H    0.997 --   117 C    0.965
   119   1 H    0.996 --   117 C    0.967
   120   6 C    3.986 --   130 C    1.420   121 C    1.397   117 C    1.003
   121   6 C    3.987 --   123 C    1.459   120 C    1.397   122 H    0.967
                           128 C    0.108
   122   1 H    0.997 --   121 C    0.967
   123   6 C    3.987 --   121 C    1.459   125 C    1.364   124 H    0.969
                           130 C    0.107
   124   1 H    0.998 --   123 C    0.969
   125   6 C    3.936 --   128 C    1.372   123 C    1.364   126 O    1.070
   126   8 O    2.070 --   125 C    1.070   127 H    0.845
   127   1 H    0.863 --   126 O    0.845
   128   6 C    3.985 --   130 C    1.438   125 C    1.372   129 H    0.969
                           121 C    0.108
   129   1 H    0.998 --   128 C    0.969
   130   6 C    3.989 --   128 C    1.438   120 C    1.420   131 H    0.969
                           123 C    0.107
   131   1 H    0.998 --   130 C    0.969
   132   6 C    3.875 --   133 O    1.865   115 C    0.983   181 H    0.935
   133   8 O    2.024 --   132 C    1.865
   134   7 N    3.032 --   136 C    1.001   135 H    0.961   182 H    0.954
   135   1 H    0.975 --   134 N    0.961
   136   6 C    3.980 --   134 N    1.001   149 C    0.977   138 C    0.965
                           137 H    0.963
   137   1 H    0.996 --   136 C    0.963
   138   6 C    3.995 --   141 C    1.008   139 H    0.971   136 C    0.965
                           140 H    0.955
   139   1 H    0.998 --   138 C    0.971
   140   1 H    0.996 --   138 C    0.955
   141   6 C    3.974 --   147 C    1.571   142 N    1.267   138 C    1.008
   142   7 N    2.984 --   143 C    1.517   141 C    1.267   145 N    0.108
   143   6 C    3.959 --   142 N    1.517   145 N    1.301   144 H    0.964
                           147 C    0.119
   144   1 H    0.998 --   143 C    0.964
   145   7 N    3.597 --   143 C    1.301   147 C    1.198   146 H    0.921
                           142 N    0.108
   146   1 H    0.950 --   145 N    0.921
   147   6 C    3.939 --   141 C    1.571   145 N    1.198   148 H    0.967
                           143 C    0.119
   148   1 H    0.998 --   147 C    0.967
   149   6 C    3.877 --   150 O    1.895   136 C    0.977   183 H    0.937
   150   8 O    2.058 --   149 C    1.895
   151   7 N    3.009 --   153 C    1.020   184 H    0.955   152 H    0.946
   152   1 H    0.972 --   151 N    0.946
   153   6 C    3.983 --   151 N    1.020   168 C    0.985   154 H    0.951
                           155 C    0.937
   154   1 H    0.994 --   153 C    0.951
   155   6 C    3.988 --   157 C    1.010   161 C    0.993   156 H    0.956
                           153 C    0.937
   156   1 H    0.996 --   155 C    0.956
   157   6 C    3.993 --   155 C    1.010   160 H    0.984   158 H    0.982
                           159 H    0.979
   158   1 H    0.998 --   157 C    0.982
   159   1 H    0.997 --   157 C    0.979
   160   1 H    0.999 --   157 C    0.984
   161   6 C    3.996 --   164 C    1.016   155 C    0.993   163 H    0.978
                           162 H    0.973
   162   1 H    1.000 --   161 C    0.973
   163   1 H    0.999 --   161 C    0.978
   164   6 C    3.993 --   161 C    1.016   165 H    0.985   167 H    0.984
                           166 H    0.983
   165   1 H    0.998 --   164 C    0.985
   166   1 H    0.998 --   164 C    0.983
   167   1 H    0.998 --   164 C    0.984
   168   6 C    3.874 --   169 O    1.879   153 C    0.985   185 H    0.939
   169   8 O    2.028 --   168 C    1.879
   170   1 H    0.967 --     1 N    0.952
   171   1 H    0.997 --    20 C    0.937
   172   1 H    0.967 --    22 N    0.951
   173   1 H    0.994 --    52 C    0.937
   174   1 H    0.970 --    54 N    0.957
   175   1 H    0.997 --    76 C    0.939
   176   1 H    0.971 --    78 N    0.957
   177   1 H    0.998 --    96 C    0.940
   178   1 H    0.962 --    98 N    0.948
   179   1 H    0.996 --   111 C    0.935
   180   1 H    0.971 --   113 N    0.955
   181   1 H    0.996 --   132 C    0.935
   182   1 H    0.970 --   134 N    0.954
   183   1 H    0.996 --   149 C    0.937
   184   1 H    0.968 --   151 N    0.955
   185   1 H    0.997 --   168 C    0.939
 ---------------------------------------------------------------------------

Topologies differ in total number of bonds
Writing topology from bond orders to xtbtopo.mol

molecular dipole:
                 x           y           z       tot (Debye)
 q only:      -52.911     -68.350     -83.917
   full:      -52.701     -67.976     -84.778     306.968
molecular quadrupole (traceless):
                xx          xy          yy          xz          yz          zz
 q only:     2993.375   -5243.326     180.360   -6560.825   -8785.160   -3173.736
  q+dip:     3058.441   -5195.911     274.997   -6614.256   -8812.154   -3333.438
   full:     3061.123   -5195.242     278.296   -6614.350   -8812.086   -3339.419


           -------------------------------------------------
          | TOTAL ENERGY             -284.192692944820 Eh   |
          | GRADIENT NORM               0.262511711905 Eh/α |
          | HOMO-LUMO GAP               1.250628683748 eV   |
           -------------------------------------------------

------------------------------------------------------------------------
 * finished run on 2026/01/05 at 09:06:47.519     
------------------------------------------------------------------------
Note: The following floating-point exceptions are signalling: IEEE_UNDERFLOW_FLAG IEEE_DENORMAL
normal termination of xtb
 total:
 * wall-time:     0 d,  0 h,  0 min,  1.809 sec
 *  cpu-time:     0 d,  0 h,  0 min, 26.330 sec
 * ratio c/w:    14.556 speedup
 SCF:
 * wall-time:     0 d,  0 h,  0 min,  1.752 sec
 *  cpu-time:     0 d,  0 h,  0 min, 25.519 sec
 * ratio c/w:    14.567 speedup

