      -----------------------------------------------------------      
     |                   =====================                   |     
     |                           x T B                           |     
     |                   =====================                   |     
     |                         S. Grimme                         |     
     |          Mulliken Center for Theoretical Chemistry        |     
     |                    University of Bonn                     |     
      -----------------------------------------------------------      

   * xtb version 6.7.1 (edcfbbe) compiled by 'conda@c0858423619e' on 2025-09-04

   xtb is free software: you can redistribute it and/or modify it under
   the terms of the GNU Lesser General Public License as published by
   the Free Software Foundation, either version 3 of the License, or
   (at your option) any later version.
   
   xtb is distributed in the hope that it will be useful,
   but WITHOUT ANY WARRANTY; without even the implied warranty of
   MERCHANTABILITY or FITNESS FOR A PARTICULAR PURPOSE.  See the
   GNU Lesser General Public License for more details.
   
   Cite this work as:
   * C. Bannwarth, E. Caldeweyher, S. Ehlert, A. Hansen, P. Pracht,
     J. Seibert, S. Spicher, S. Grimme, WIREs Comput. Mol. Sci., 2020, 11,
     e01493. DOI: 10.1002/wcms.1493
   
   for GFN2-xTB:
   * C. Bannwarth, S. Ehlert and S. Grimme., J. Chem. Theory Comput., 2019,
     15, 1652-1671. DOI: 10.1021/acs.jctc.8b01176
   for GFN1-xTB:
   * S. Grimme, C. Bannwarth, P. Shushkov, J. Chem. Theory Comput., 2017,
     13, 1989-2009. DOI: 10.1021/acs.jctc.7b00118
   for GFN0-xTB:
   * P. Pracht, E. Caldeweyher, S. Ehlert, S. Grimme, ChemRxiv, 2019, preprint.
     DOI: 10.26434/chemrxiv.8326202.v1
   for GFN-FF:
   * S. Spicher and S. Grimme, Angew. Chem. Int. Ed., 2020, 59, 15665-15673.
     DOI: 10.1002/anie.202004239
   
   for ALPB and GBSA implicit solvation:
   * S. Ehlert, M. Stahn, S. Spicher, S. Grimme, J. Chem. Theory Comput.,
     2021, 17, 4250-4261. DOI: 10.1021/acs.jctc.1c00471
   
   for ddCOSMO and CPCM-X implicit solvation:
   * M. Stahn, S. Ehlert, S. Grimme, J. Phys. Chem. A,
     2023, XX, XXXX-XXXX. DOI: 10.1021/acs.jpca.3c04382
   
   for DFT-D4:
   * E. Caldeweyher, C. Bannwarth and S. Grimme, J. Chem. Phys., 2017,
     147, 034112. DOI: 10.1063/1.4993215
   * E. Caldeweyher, S. Ehlert, A. Hansen, H. Neugebauer, S. Spicher,
     C. Bannwarth and S. Grimme, J. Chem. Phys., 2019, 150, 154122.
     DOI: 10.1063/1.5090222
   * E. Caldeweyher, J.-M. Mewes, S. Ehlert and S. Grimme, Phys. Chem. Chem. Phys.
     2020, 22, 8499-8512. DOI: 10.1039/D0CP00502A
   
   for sTDA-xTB:
   * S. Grimme and C. Bannwarth, J. Chem. Phys., 2016, 145, 054103.
     DOI: 10.1063/1.4959605
   
   in the mass-spec context:
   * V. Asgeirsson, C. Bauer and S. Grimme, Chem. Sci., 2017, 8, 4879.
     DOI: 10.1039/c7sc00601b
   * J. Koopman and S. Grimme, ACS Omega 2019, 4, 12, 15120-15133.
     DOI: 10.1021/acsomega.9b02011
   
   for metadynamics refer to:
   * S. Grimme, J. Chem. Theory Comput., 2019, 155, 2847-2862
     DOI: 10.1021/acs.jctc.9b00143
   
   for SPH calculations refer to:
   * S. Spicher and S. Grimme, J. Chem. Theory Comput., 2021, 17, 1701-1714
     DOI: 10.1021/acs.jctc.0c01306
   
   for ONIOM refer to:
   * C. Plett, A. Katbashev, S. Ehlert, S. Grimme, M. Bursch,
     Phys. Chem. Chem. Phys., 2023, 25, 17860-17868. DOI: 10.1039/D3CP02178E
   
   for DIPRO refer to:
   * J. Kohn, N. Gildemeister, S. Grimme, D. Fazzi, A. Hansen,
     J. Chem. Phys., 2023, just accepted.
   
   for PTB refer to:
   * S. Grimme, M. Mueller, A. Hansen, J. Chem. Phys., 2023, 158, 124111.
     DOI: 10.1063/5.0137838
   
   with help from (in alphabetical order)
   P. Atkinson, C. Bannwarth, F. Bohle, G. Brandenburg, E. Caldeweyher
   M. Checinski, S. Dohm, S. Ehlert, S. Ehrlich, I. Gerasimov, C. Hölzer
   A. Katbashev, J. Kohn, J. Koopman, C. Lavigne, S. Lehtola, F. März, M. Müller,
   F. Musil, H. Neugebauer, J. Pisarek, C. Plett, P. Pracht, F. Pultar,
   J. Seibert, P. Shushkov, S. Spicher, M. Stahn, M. Steiner, T. Strunk,
   J. Stückrath, T. Rose, and J. Unsleber
   
 * started run on 2026/01/05 at 09:07:46.080     
   ID    Z sym.   atoms
    1    6 C      1, 3-11, 14-16, 18, 20, 21, 24-29, 32, 62, 64, 67, 68, 70,
                  72, 75, 77, 79, 83, 85, 88, 89, 91, 93, 95, 97, 99, 103,
                  105, 108, 111, 115, 117, 122, 126, 128, 131, 134, 139, 146,
                  150, 152, 155, 158, 161, 168, 171, 174, 177, 180, 182, 186,
                  188, 191, 192, 194, 196, 198, 200, 202, 206, 208, 211, 213,
                  217, 219, 223, 225, 227, 231, 234, 238, 242, 244, 246, 250,
                  253, 257
    2    7 N      2, 22, 60, 81, 101, 113, 124, 137, 140, 143, 148, 164, 170,
                  184, 204, 212, 215, 221, 240
    3    8 O      12, 13, 17, 30, 31, 73, 80, 100, 109, 110, 112, 120, 123,
                  147, 169, 183, 203, 220, 239, 258
    4   16 S      19, 23
    5    1 H      33-59, 61, 63, 65, 66, 69, 71, 74, 76, 78, 82, 84, 86, 87,
                  90, 92, 94, 96, 98, 102, 104, 106, 107, 114, 116, 118, 119,
                  121, 125, 127, 129, 130, 132, 133, 135, 136, 138, 141, 142,
                  144, 145, 149, 151, 153, 154, 156, 157, 159, 160, 162, 163,
                  165-167, 172, 173, 175, 176, 178, 179, 181, 185, 187, 189,
                  190, 193, 195, 197, 199, 201, 205, 207, 209, 210, 214, 216,
                  218, 222, 224, 226, 228-230, 232, 233, 235-237, 241, 243,
                  245, 247-249, 251, 252, 254-256, 259-272

           -------------------------------------------------
          |                Calculation Setup                |
           -------------------------------------------------

          program call               : xtb /home/antonio_mesquita/Documentos/gmx_ISA_project/testes_arquivos_primeiros/gmx_ISA_testes/testes_qm_xtb/QM_analysis/QM_FRAMES_CAPPED/frame_5000ps/complex_capped_5000ps.xyz --gfn 2 --alpb water --chrg 2 --etemp 1500 --cycles 1000
          coordinate file            : /home/antonio_mesquita/Documentos/gmx_ISA_project/testes_arquivos_primeiros/gmx_ISA_testes/testes_qm_xtb/QM_analysis/QM_FRAMES_CAPPED/frame_5000ps/complex_capped_5000ps.xyz
          omp threads                :                    16


molecular fragmentation (1/2 indicates fragments):
111111111111111111111111111111111111111111111111111111111112222222222222
222222222222222222222222222222222222222222222222222222222222222222222222
222222222222222222222222222222222222222222222222222222222222222222222222
22222222222222222222222222222222222222222222222222222222
# atoms in fragment 1/2:    59   213
 fragment masses (1/2) :      475.60     1419.74
CMA distance (Bohr)    :  11.131
constraining FC (au)   :  0.0500

           -------------------------------------------------
          |                 G F N 2 - x T B                 |
           -------------------------------------------------

        Reference                      10.1021/acs.jctc.8b01176
      * Hamiltonian:
        H0-scaling (s, p, d)           1.850000    2.230000    2.230000
        zeta-weighting                 0.500000
      * Dispersion:
        s8                             2.700000
        a1                             0.520000
        a2                             5.000000
        s9                             5.000000
      * Repulsion:
        kExp                           1.500000    1.000000
        rExp                           1.000000
      * Coulomb:
        alpha                          2.000000
        third order                    shell-resolved
        anisotropic                    true
        a3                             3.000000
        a5                             4.000000
        cn-shift                       1.200000
        cn-exp                         4.000000
        max-rad                        5.000000

      * Solvation model:               ALPB
        Solvent                        water
        Parameter file                 internal GFN2-xTB/ALPB
        Dielectric constant                8.0200E+01
        Reference state                gsolv [1 M gas/solution]
        Free energy shift                  1.0808E-03 Eh       6.7819E-01 kcal/mol
        Temperature                        2.9815E+02 K
        Density                            1.0000E+00 kg/L
        Solvent mass                       1.8000E+01 g/mol
        Interaction kernel             P16
        Born radius scaling (c1)           1.4744E+00
        Born radii integrator          GBOBC
        Born offset                        0.0000E+00 a0       0.0000E+00 AA
        H-bond correction              true
        Ion screening                  false
        Surface tension                    1.0000E-05 Eh       1.5569E+01 dyn/cm
        Grid points                               230 per atom

          ...................................................
          :                      SETUP                      :
          :.................................................:
          :  # basis functions                 683          :
          :  # atomic orbitals                 681          :
          :  # shells                          407          :
          :  # electrons                       732          :
          :  max. iterations                   250          :
          :  Hamiltonian                  GFN2-xTB          :
          :  restarted?                      false          :
          :  GBSA solvation                   true          :
          :  PC potential                    false          :
          :  electronic temp.         1500.0000000     K    :
          :  accuracy                    1.0000000          :
          :  -> integral cutoff          0.2500000E+02      :
          :  -> integral neglect         0.1000000E-07      :
          :  -> SCF convergence          0.1000000E-05 Eh   :
          :  -> wf. convergence          0.1000000E-03 e    :
          :  Broyden damping             0.4000000          :
          :  net charge                          2          :
          :  unpaired electrons                  0          :
          ...................................................

 iter      E             dE          RMSdq      gap      omega  full diag
   1   -414.6227777 -0.414623E+03  0.445E+00    0.03       0.0  T
   2   -415.2478866 -0.625109E+00  0.251E+00    1.00       1.0  T
   3   -415.0936902  0.154196E+00  0.166E+00    0.02       1.0  T
   4   -415.3564431 -0.262753E+00  0.800E-01    0.52       1.0  T
   5   -415.3838929 -0.274498E-01  0.612E-01    0.07       1.0  T
   6   -415.4851024 -0.101209E+00  0.222E-01    0.19       1.0  T
   7   -415.4842529  0.849468E-03  0.186E-01    0.33       1.0  T
   8   -415.4877721 -0.351923E-02  0.142E-01    0.18       1.0  T
   9   -415.4916741 -0.390199E-02  0.885E-02    0.22       1.0  T
  10   -415.4925119 -0.837817E-03  0.594E-02    0.32       1.0  T
  11   -415.4932158 -0.703899E-03  0.345E-02    0.28       1.0  T
  12   -415.4935052 -0.289380E-03  0.126E-02    0.28       1.0  T
  13   -415.4935193 -0.141017E-04  0.832E-03    0.29       1.0  T
  14   -415.4935277 -0.833214E-05  0.521E-03    0.29       1.2  T
  15   -415.4935329 -0.523515E-05  0.264E-03    0.29       2.3  T
  16   -415.4935340 -0.106548E-05  0.129E-03    0.29       4.7  T
  17   -415.4935340 -0.875850E-07  0.107E-03    0.29       5.7  T
  18   -415.4935343 -0.224310E-06  0.521E-04    0.29      11.6  T
  19   -415.4935343 -0.375027E-07  0.329E-04    0.29      18.4  T

   *** convergence criteria satisfied after 19 iterations ***

         #    Occupation            Energy/Eh            Energy/eV
      -------------------------------------------------------------
         1        2.0000           -0.7919769             -21.5508
       ...           ...                  ...                  ...
       360        1.9065           -0.3608457              -9.8191
       361        1.8852           -0.3598160              -9.7911
       362        1.8799           -0.3595910              -9.7850
       363        1.8659           -0.3590318              -9.7698
       364        1.8434           -0.3582370              -9.7481
       365        1.8127           -0.3573065              -9.7228
       366        1.8104           -0.3572428              -9.7211 (HOMO)
       367        1.0231           -0.3467431              -9.4354 (LUMO)
       368        0.0001           -0.2986330              -8.1262
       369        0.0001           -0.2975586              -8.0970
       370        0.0000           -0.2937850              -7.9943
       371        0.0000           -0.2931425              -7.9768
       ...           ...                  ...                  ...
       681                          1.0725104              29.1845
      -------------------------------------------------------------
                  HL-Gap            0.0104997 Eh            0.2857 eV
             Fermi-level           -0.3465236 Eh           -9.4294 eV

 SCC (total)                   0 d,  0 h,  0 min,  2.573 sec
 SCC setup                      ...        0 min,  0.014 sec (  0.552%)
 Dispersion                     ...        0 min,  0.025 sec (  0.972%)
 classical contributions        ...        0 min,  0.004 sec (  0.153%)
 integral evaluation            ...        0 min,  0.065 sec (  2.509%)
 iterations                     ...        0 min,  2.216 sec ( 86.116%)
 molecular gradient             ...        0 min,  0.242 sec (  9.385%)
 printout                       ...        0 min,  0.008 sec (  0.311%)

         :::::::::::::::::::::::::::::::::::::::::::::::::::::
         ::                     SUMMARY                     ::
         :::::::::::::::::::::::::::::::::::::::::::::::::::::
         :: total energy            -410.362833058350 Eh    ::
         :: total w/o Gsasa/hb      -410.323949623309 Eh    ::
         :: gradient norm              0.300685449390 Eh/a0 ::
         :: HOMO-LUMO gap              0.285710820508 eV    ::
         ::.................................................::
         :: SCC energy              -415.471838251596 Eh    ::
         :: -> isotropic ES            1.067317164318 Eh    ::
         :: -> anisotropic ES         -0.048107848088 Eh    ::
         :: -> anisotropic XC          0.181464785180 Eh    ::
         :: -> dispersion             -0.332078307089 Eh    ::
         :: -> Gsolv                  -0.371462579247 Eh    ::
         ::    -> Gelec               -0.332579144206 Eh    ::
         ::    -> Gsasa                0.002256654577 Eh    ::
         ::    -> Ghb                 -0.042220849316 Eh    ::
         ::    -> Gshift               0.001080759698 Eh    ::
         :: repulsion energy           5.109005193246 Eh    ::
         :: add. restraining           0.000000000000 Eh    ::
         :: total charge               1.999999999999 e     ::
         :::::::::::::::::::::::::::::::::::::::::::::::::::::

           -------------------------------------------------
          |                Property Printout                |
           -------------------------------------------------

    * Orbital Energies and Occupations

         #    Occupation            Energy/Eh            Energy/eV
      -------------------------------------------------------------
         1        2.0000           -0.7919769             -21.5508
       ...           ...                  ...                  ...
       354        1.9999           -0.3916469             -10.6573
       355        1.9998           -0.3897261             -10.6050
       356        1.9997           -0.3878295             -10.5534
       357        1.9954           -0.3753423             -10.2136
       358        1.9934           -0.3736455             -10.1674
       359        1.9853           -0.3698178             -10.0633
       360        1.9065           -0.3608457              -9.8191
       361        1.8852           -0.3598160              -9.7911
       362        1.8799           -0.3595910              -9.7850
       363        1.8659           -0.3590318              -9.7698
       364        1.8434           -0.3582370              -9.7481
       365        1.8127           -0.3573065              -9.7228
       366        1.8104           -0.3572428              -9.7211 (HOMO)
       367        1.0231           -0.3467431              -9.4354 (LUMO)
       368        0.0001           -0.2986330              -8.1262
       369        0.0001           -0.2975586              -8.0970
       370        0.0000           -0.2937850              -7.9943
       371        0.0000           -0.2931425              -7.9768
       372        0.0000           -0.2833087              -7.7092
       373        0.0000           -0.2825919              -7.6897
       374        0.0000           -0.2780834              -7.5670
       375                         -0.2654184              -7.2224
       376                         -0.2509357              -6.8283
       377                         -0.2479695              -6.7476
       ...                                ...                  ...
       681                          1.0725104              29.1845
      -------------------------------------------------------------
                  HL-Gap            0.0104997 Eh            0.2857 eV
             Fermi-level           -0.3465236 Eh           -9.4294 eV

     #   Z          covCN         q      C6AA      α(0)
     1   6 C        2.743     0.261    22.609     7.785
     2   7 N        2.689    -0.117    23.555     7.208
     3   6 C        2.867     0.024    27.464     8.590
     4   6 C        3.680     0.064    19.717     6.360
     5   6 C        3.805    -0.078    21.995     6.677
     6   6 C        2.959     0.022    27.518     8.604
     7   6 C        2.915    -0.044    29.096     8.845
     8   6 C        2.912    -0.031    28.765     8.795
     9   6 C        2.908    -0.040    28.983     8.828
    10   6 C        2.911    -0.039    28.978     8.827
    11   6 C        2.919    -0.044    29.085     8.844
    12   8 O        1.703    -0.272    18.504     5.808
    13   8 O        0.857    -0.482    23.395     6.485
    14   6 C        2.704     0.331    21.376     7.567
    15   6 C        3.745    -0.124    22.954     6.834
    16   6 C        3.812     0.011    20.381     6.426
    17   8 O        0.858    -0.472    23.169     6.454
    18   6 C        3.788    -0.033    21.179     6.555
    19  16 S        1.961    -0.135   146.746    20.389
    20   6 C        3.791    -0.042    21.336     6.578
    21   6 C        3.848     0.030    20.030     6.366
    22   7 N        2.729    -0.311    27.983     7.857
    23  16 S        3.778     1.164   102.071    17.004
    24   6 C        2.974    -0.093    30.327     9.033
    25   6 C        2.945    -0.036    28.890     8.816
    26   6 C        2.920    -0.037    28.912     8.818
    27   6 C        2.962     0.032    27.280     8.567
    28   6 C        2.925    -0.030    28.742     8.792
    29   6 C        2.945    -0.026    28.649     8.779
    30   8 O        0.860    -0.649    27.351     7.012
    31   8 O        0.859    -0.649    27.348     7.011
    32   6 C        3.755    -0.125    22.952     6.831
    33   1 H        0.861     0.247     0.893     1.480
    34   1 H        0.924     0.092     1.857     2.131
    35   1 H        0.924     0.053     2.282     2.362
    36   1 H        0.924     0.116     1.649     2.008
    37   1 H        0.923     0.094     1.842     2.122
    38   1 H        0.924     0.051     2.311     2.378
    39   1 H        0.925     0.037     2.485     2.465
    40   1 H        0.924     0.032     2.565     2.504
    41   1 H        0.926     0.035     2.514     2.480
    42   1 H        0.925     0.031     2.577     2.510
    43   1 H        0.924     0.047     2.356     2.400
    44   1 H        0.924     0.058     2.226     2.333
    45   1 H        0.924     0.070     2.088     2.260
    46   1 H        0.923     0.054     2.271     2.357
    47   1 H        0.923     0.058     2.222     2.331
    48   1 H        0.923     0.068     2.105     2.269
    49   1 H        0.923     0.099     1.796     2.096
    50   1 H        0.923     0.073     2.055     2.242
    51   1 H        0.924     0.083     1.946     2.181
    52   1 H        0.923     0.066     2.129     2.282
    53   1 H        0.925     0.070     2.081     2.256
    54   1 H        0.925     0.080     1.978     2.200
    55   1 H        0.925     0.067     2.114     2.274
    56   1 H        0.925     0.062     2.179     2.308
    57   1 H        0.923     0.076     2.016     2.221
    58   1 H        0.924     0.073     2.055     2.242
    59   1 H        0.923     0.063     2.163     2.300
    60   7 N        2.633    -0.323    28.308     7.902
    61   1 H        0.860     0.203     1.091     1.636
    62   6 C        3.783     0.038    19.960     6.364
    63   1 H        0.924     0.075     2.030     2.228
    64   6 C        3.814    -0.077    21.960     6.670
    65   1 H        0.924     0.084     1.938     2.177
    66   1 H        0.925     0.060     2.199     2.319
    67   6 C        2.958     0.002    27.990     8.678
    68   6 C        2.916    -0.046    29.131     8.851
    69   1 H        0.925     0.026     2.639     2.540
    70   6 C        2.904    -0.071    29.778     8.948
    71   1 H        0.926     0.028     2.608     2.525
    72   6 C        2.835     0.145    24.848     8.169
    73   8 O        1.660    -0.424    21.323     6.234
    74   1 H        0.806     0.341     0.610     1.227
    75   6 C        2.910    -0.061    29.522     8.909
    76   1 H        0.926     0.064     2.152     2.294
    77   6 C        2.911    -0.038    28.955     8.824
    78   1 H        0.926     0.067     2.124     2.279
    79   6 C        2.760     0.203    23.692     7.971
    80   8 O        0.856    -0.373    21.158     6.167
    81   7 N        2.632    -0.355    29.138     8.017
    82   1 H        0.860     0.173     1.252     1.753
    83   6 C        3.787     0.030    20.077     6.382
    84   1 H        0.925     0.063     2.159     2.298
    85   6 C        3.810    -0.076    21.945     6.668
    86   1 H        0.925     0.058     2.218     2.329
    87   1 H        0.924     0.059     2.207     2.323
    88   6 C        2.959     0.011    27.779     8.645
    89   6 C        2.915    -0.041    29.008     8.832
    90   1 H        0.926     0.042     2.423     2.434
    91   6 C        2.910    -0.037    28.920     8.818
    92   1 H        0.925     0.040     2.447     2.446
    93   6 C        2.917    -0.038    28.942     8.822
    94   1 H        0.926     0.038     2.477     2.461
    95   6 C        2.902    -0.037    28.926     8.819
    96   1 H        0.926     0.042     2.416     2.431
    97   6 C        2.922    -0.044    29.087     8.844
    98   1 H        0.926     0.022     2.709     2.574
    99   6 C        2.757     0.269    22.450     7.759
   100   8 O        0.860    -0.513    24.080     6.579
   101   7 N        2.691    -0.164    24.539     7.357
   102   1 H        0.860     0.215     1.032     1.592
   103   6 C        3.797     0.042    19.871     6.347
   104   1 H        0.924     0.089     1.891     2.150
   105   6 C        3.810    -0.083    22.073     6.688
   106   1 H        0.925     0.051     2.312     2.378
   107   1 H        0.925     0.067     2.119     2.276
   108   6 C        2.689     0.357    20.941     7.489
   109   8 O        0.857    -0.611    26.391     6.888
   110   8 O        0.857    -0.613    26.429     6.893
   111   6 C        2.761     0.207    23.609     7.957
   112   8 O        0.857    -0.361    20.921     6.132
   113   7 N        2.636    -0.314    28.073     7.869
   114   1 H        0.860     0.178     1.225     1.733
   115   6 C        3.784     0.026    20.155     6.395
   116   1 H        0.925     0.100     1.782     2.088
   117   6 C        3.686     0.070    19.603     6.339
   118   1 H        0.925     0.078     1.997     2.210
   119   1 H        0.925     0.061     2.190     2.314
   120   8 O        1.655    -0.475    22.356     6.383
   121   1 H        0.806     0.335     0.624     1.241
   122   6 C        2.759     0.200    23.735     7.978
   123   8 O        0.856    -0.362    20.935     6.135
   124   7 N        2.630    -0.335    28.613     7.944
   125   1 H        0.860     0.159     1.339     1.812
   126   6 C        3.784     0.033    20.039     6.376
   127   1 H        0.925     0.094     1.843     2.123
   128   6 C        3.804    -0.072    21.874     6.658
   129   1 H        0.924     0.074     2.046     2.237
   130   1 H        0.925     0.065     2.145     2.290
   131   6 C        3.803    -0.082    22.060     6.687
   132   1 H        0.925     0.063     2.167     2.302
   133   1 H        0.925     0.066     2.124     2.279
   134   6 C        3.737    -0.019    21.001     6.539
   135   1 H        0.924     0.067     2.116     2.275
   136   1 H        0.924     0.094     1.845     2.124
   137   7 N        2.687    -0.129    23.794     7.245
   138   1 H        0.860     0.224     0.990     1.558
   139   6 C        2.735     0.232    23.139     7.876
   140   7 N        2.659    -0.258    26.687     7.672
   141   1 H        0.860     0.229     0.968     1.541
   142   1 H        0.860     0.244     0.906     1.491
   143   7 N        2.663    -0.260    26.742     7.680
   144   1 H        0.860     0.227     0.977     1.548
   145   1 H        0.861     0.238     0.933     1.513
   146   6 C        2.757     0.203    23.685     7.970
   147   8 O        0.856    -0.367    21.038     6.150
   148   7 N        2.635    -0.316    28.147     7.879
   149   1 H        0.861     0.190     1.156     1.684
   150   6 C        3.789     0.028    20.107     6.386
   151   1 H        0.923     0.054     2.275     2.359
   152   6 C        3.821    -0.071    21.842     6.651
   153   1 H        0.925     0.043     2.411     2.428
   154   1 H        0.925     0.063     2.159     2.298
   155   6 C        3.809    -0.076    21.935     6.667
   156   1 H        0.924     0.060     2.198     2.318
   157   1 H        0.925     0.043     2.411     2.428
   158   6 C        3.806    -0.089    22.192     6.706
   159   1 H        0.925     0.060     2.197     2.318
   160   1 H        0.925     0.079     1.992     2.207
   161   6 C        3.736    -0.040    21.380     6.599
   162   1 H        0.924     0.116     1.647     2.007
   163   1 H        0.924     0.110     1.692     2.034
   164   7 N        3.489    -0.160    24.439     7.342
   165   1 H        0.860     0.308     0.689     1.301
   166   1 H        0.860     0.312     0.680     1.292
   167   1 H        0.860     0.312     0.679     1.291
   168   6 C        2.772     0.258    22.662     7.797
   169   8 O        0.860    -0.527    24.383     6.620
   170   7 N        2.751    -0.074    22.678     7.073
   171   6 C        3.801    -0.020    20.929     6.513
   172   1 H        0.925     0.082     1.956     2.187
   173   1 H        0.924     0.074     2.045     2.236
   174   6 C        3.837    -0.075    21.901     6.658
   175   1 H        0.925     0.057     2.237     2.339
   176   1 H        0.924     0.061     2.192     2.315
   177   6 C        3.835    -0.074    21.881     6.655
   178   1 H        0.925     0.059     2.205     2.322
   179   1 H        0.925     0.079     1.985     2.203
   180   6 C        3.857     0.022    20.161     6.386
   181   1 H        0.925     0.063     2.159     2.298
   182   6 C        2.748     0.275    22.344     7.740
   183   8 O        0.859    -0.497    23.713     6.529
   184   7 N        2.693    -0.170    24.674     7.377
   185   1 H        0.860     0.213     1.042     1.599
   186   6 C        3.788     0.033    20.025     6.374
   187   1 H        0.924     0.100     1.789     2.092
   188   6 C        3.812    -0.072    21.860     6.655
   189   1 H        0.924     0.074     2.040     2.234
   190   1 H        0.924     0.080     1.979     2.200
   191   6 C        2.958     0.011    27.772     8.644
   192   6 C        2.921    -0.047    29.156     8.855
   193   1 H        0.926     0.033     2.544     2.494
   194   6 C        2.908    -0.040    29.003     8.831
   195   1 H        0.925     0.029     2.600     2.522
   196   6 C        2.912    -0.039    28.963     8.825
   197   1 H        0.926     0.030     2.584     2.514
   198   6 C        2.910    -0.033    28.822     8.803
   199   1 H        0.925     0.048     2.345     2.394
   200   6 C        2.917    -0.037    28.925     8.819
   201   1 H        0.926     0.061     2.190     2.314
   202   6 C        2.757     0.207    23.605     7.956
   203   8 O        0.857    -0.372    21.130     6.163
   204   7 N        2.643    -0.331    28.513     7.931
   205   1 H        0.860     0.196     1.126     1.662
   206   6 C        3.786     0.042    19.887     6.352
   207   1 H        0.925     0.067     2.118     2.276
   208   6 C        3.813    -0.075    21.914     6.663
   209   1 H        0.925     0.068     2.102     2.267
   210   1 H        0.924     0.092     1.855     2.130
   211   6 C        3.064     0.045    26.936     8.511
   212   7 N        1.931    -0.322    29.185     8.010
   213   6 C        3.020     0.074    26.317     8.415
   214   1 H        0.926     0.052     2.289     2.366
   215   7 N        2.790    -0.088    22.951     7.115
   216   1 H        0.861     0.214     1.038     1.596
   217   6 C        3.022    -0.028    28.677     8.784
   218   1 H        0.925     0.047     2.352     2.398
   219   6 C        2.764     0.207    23.607     7.957
   220   8 O        0.856    -0.372    21.139     6.164
   221   7 N        2.629    -0.345    28.898     7.984
   222   1 H        0.860     0.187     1.177     1.700
   223   6 C        3.795     0.023    20.200     6.400
   224   1 H        0.924     0.057     2.238     2.340
   225   6 C        3.856    -0.025    20.974     6.513
   226   1 H        0.924     0.052     2.298     2.371
   227   6 C        3.758    -0.118    22.819     6.810
   228   1 H        0.924     0.047     2.363     2.404
   229   1 H        0.924     0.055     2.255     2.349
   230   1 H        0.924     0.049     2.336     2.390
   231   6 C        3.811    -0.057    21.595     6.615
   232   1 H        0.925     0.031     2.575     2.509
   233   1 H        0.924     0.028     2.610     2.526
   234   6 C        3.751    -0.108    22.625     6.783
   235   1 H        0.925     0.042     2.422     2.434
   236   1 H        0.924     0.030     2.584     2.514
   237   1 H        0.926     0.045     2.385     2.415
   238   6 C        2.749     0.271    22.423     7.754
   239   8 O        0.863    -0.526    24.373     6.619
   240   7 N        2.697    -0.150    24.243     7.313
   241   1 H        0.860     0.224     0.989     1.558
   242   6 C        3.799     0.030    20.070     6.379
   243   1 H        0.926     0.086     1.917     2.165
   244   6 C        3.864    -0.021    20.913     6.503
   245   1 H        0.925     0.071     2.071     2.250
   246   6 C        3.758    -0.129    23.038     6.843
   247   1 H        0.925     0.064     2.157     2.297
   248   1 H        0.924     0.044     2.399     2.422
   249   1 H        0.925     0.048     2.347     2.396
   250   6 C        3.814    -0.064    21.711     6.632
   251   1 H        0.925     0.028     2.620     2.531
   252   1 H        0.924     0.039     2.467     2.456
   253   6 C        3.749    -0.115    22.769     6.805
   254   1 H        0.925     0.052     2.297     2.370
   255   1 H        0.924     0.047     2.358     2.401
   256   1 H        0.924     0.032     2.562     2.503
   257   6 C        2.769     0.210    23.558     7.949
   258   8 O        0.856    -0.357    20.841     6.121
   259   1 H        0.860     0.208     1.068     1.619
   260   1 H        0.923     0.050     2.319     2.381
   261   1 H        0.860     0.202     1.098     1.641
   262   1 H        0.923     0.075     2.028     2.227
   263   1 H        0.860     0.166     1.297     1.784
   264   1 H        0.923     0.059     2.215     2.327
   265   1 H        0.860     0.193     1.143     1.675
   266   1 H        0.923     0.061     2.192     2.315
   267   1 H        0.860     0.208     1.066     1.618
   268   1 H        0.923     0.074     2.041     2.234
   269   1 H        0.860     0.204     1.085     1.632
   270   1 H        0.923     0.066     2.127     2.281
   271   1 H        0.860     0.207     1.073     1.622
   272   1 H        0.923     0.062     2.171     2.304

 Mol. C6AA /au·bohr⁶  :     734210.961887
 Mol. C8AA /au·bohr⁸  :   17052386.784802
 Mol. α(0) /au        :       1308.519855


Wiberg/Mayer (AO) data.
largest (>0.10) Wiberg bond orders for each atom

 ---------------------------------------------------------------------------
     #   Z sym  total        # sym  WBO       # sym  WBO       # sym  WBO
 ---------------------------------------------------------------------------
     1   6 C    3.882 --    17 O    1.657     2 N    1.198    21 C    0.937
     2   7 N    3.495 --     1 C    1.198     3 C    1.186    33 H    0.869
                            17 O    0.138
     3   6 C    3.483 --     2 N    1.186    14 C    1.095     5 C    1.038
     4   6 C    3.908 --    15 C    1.000    35 H    0.969    34 H    0.964
                            12 O    0.940
     5   6 C    3.974 --     3 C    1.038     6 C    0.973    36 H    0.939
                            37 H    0.938
     6   6 C    3.955 --    11 C    1.415     7 C    1.406     5 C    0.973
                             9 C    0.110
     7   6 C    3.986 --     8 C    1.447     6 C    1.406    38 H    0.967
                            10 C    0.112
     8   6 C    3.988 --     7 C    1.447     9 C    1.432    39 H    0.970
                            11 C    0.109
     9   6 C    3.988 --    10 C    1.438     8 C    1.432    40 H    0.971
                             6 C    0.110
    10   6 C    3.990 --    11 C    1.441     9 C    1.438    41 H    0.972
                             7 C    0.112
    11   6 C    3.987 --    10 C    1.441     6 C    1.415    42 H    0.968
                             8 C    0.109
    12   8 O    2.251 --    14 C    1.093     4 C    0.940    13 O    0.152
    13   8 O    1.882 --    14 C    1.609    12 O    0.152
    14   6 C    3.875 --    13 O    1.609     3 C    1.095    12 O    1.093
    15   6 C    3.983 --     4 C    1.000    43 H    0.983    44 H    0.981
                            45 H    0.981
    16   6 C    3.959 --    18 C    1.004    22 N    0.976    46 H    0.965
                            47 H    0.961
    17   8 O    1.899 --     1 C    1.657     2 N    0.138
    18   6 C    3.970 --    16 C    1.004    19 S    0.992    48 H    0.972
                            49 H    0.963
    19  16 S    2.131 --    20 C    0.992    18 C    0.992
    20   6 C    3.974 --    21 C    0.993    19 S    0.992    50 H    0.970
                            51 H    0.968
    21   6 C    3.966 --    20 C    0.993    22 N    0.978    52 H    0.938
                             1 C    0.937
    22   7 N    3.166 --    21 C    0.978    16 C    0.976    23 S    0.885
    23  16 S    4.809 --    31 O    1.550    30 O    1.547    22 N    0.885
                            24 C    0.731
    24   6 C    3.943 --    29 C    1.410    25 C    1.403    23 S    0.731
                            27 C    0.100
    25   6 C    3.981 --    26 C    1.445    24 C    1.403    53 H    0.964
                            28 C    0.110
    26   6 C    3.983 --    25 C    1.445    27 C    1.401    54 H    0.961
                            29 C    0.100
    27   6 C    3.980 --    26 C    1.401    28 C    1.399    32 C    1.028
                            24 C    0.100
    28   6 C    3.985 --    29 C    1.446    27 C    1.399    55 H    0.962
                            25 C    0.110
    29   6 C    3.984 --    28 C    1.446    24 C    1.410    56 H    0.961
                            26 C    0.100
    30   8 O    1.840 --    23 S    1.547    31 O    0.102
    31   8 O    1.846 --    23 S    1.550    30 O    0.102
    32   6 C    3.987 --    27 C    1.028    58 H    0.981    59 H    0.967
                            57 H    0.954
    33   1 H    0.938 --     2 N    0.869
    34   1 H    0.991 --     4 C    0.964
    35   1 H    0.995 --     4 C    0.969
    36   1 H    0.985 --     5 C    0.939
    37   1 H    0.974 --     5 C    0.938
    38   1 H    0.997 --     7 C    0.967
    39   1 H    0.998 --     8 C    0.970
    40   1 H    0.998 --     9 C    0.971
    41   1 H    0.998 --    10 C    0.972
    42   1 H    0.999 --    11 C    0.968
    43   1 H    0.998 --    15 C    0.983
    44   1 H    0.996 --    15 C    0.981
    45   1 H    0.995 --    15 C    0.981
    46   1 H    0.997 --    16 C    0.965
    47   1 H    0.997 --    16 C    0.961
    48   1 H    0.994 --    18 C    0.972
    49   1 H    0.990 --    18 C    0.963
    50   1 H    0.993 --    20 C    0.970
    51   1 H    0.992 --    20 C    0.968
    52   1 H    0.993 --    21 C    0.938
    53   1 H    0.995 --    25 C    0.964
    54   1 H    0.993 --    26 C    0.961
    55   1 H    0.994 --    28 C    0.962
    56   1 H    0.996 --    29 C    0.961
    57   1 H    0.994 --    32 C    0.954
    58   1 H    0.994 --    32 C    0.981
    59   1 H    0.995 --    32 C    0.967
    60   7 N    2.986 --    62 C    1.041   259 H    0.943    61 H    0.930
    61   1 H    0.959 --    60 N    0.930
    62   6 C    3.976 --    60 N    1.041    79 C    0.994    63 H    0.946
                            64 C    0.905
    63   1 H    0.990 --    62 C    0.946
    64   6 C    3.965 --    67 C    1.021    66 H    0.968    65 H    0.957
                            62 C    0.905
    65   1 H    0.992 --    64 C    0.957
    66   1 H    0.993 --    64 C    0.968
    67   6 C    3.974 --    77 C    1.403    68 C    1.392    64 C    1.021
    68   6 C    3.981 --    70 C    1.459    67 C    1.392    69 H    0.970
                            75 C    0.106
    69   1 H    0.999 --    68 C    0.970
    70   6 C    3.982 --    68 C    1.459    72 C    1.357    71 H    0.969
                            77 C    0.102
    71   1 H    0.999 --    70 C    0.969
    72   6 C    3.925 --    70 C    1.357    75 C    1.357    73 O    1.086
    73   8 O    2.098 --    72 C    1.086    74 H    0.843
    74   1 H    0.883 --    73 O    0.843
    75   6 C    3.977 --    77 C    1.455    72 C    1.357    76 H    0.965
                            68 C    0.106
    76   1 H    0.996 --    75 C    0.965
    77   6 C    3.983 --    75 C    1.455    67 C    1.403    78 H    0.966
                            70 C    0.102
    78   1 H    0.995 --    77 C    0.966
    79   6 C    3.887 --    80 O    1.873    62 C    0.994   260 H    0.938
    80   8 O    2.045 --    79 C    1.873
    81   7 N    2.998 --    83 C    1.032    82 H    0.945   261 H    0.944
    82   1 H    0.970 --    81 N    0.945
    83   6 C    3.976 --    81 N    1.032    84 H    0.952    85 C    0.945
                            99 C    0.938
    84   1 H    0.995 --    83 C    0.952
    85   6 C    3.977 --    88 C    1.015    86 H    0.969    87 H    0.956
                            83 C    0.945
    86   1 H    0.995 --    85 C    0.969
    87   1 H    0.995 --    85 C    0.956
    88   6 C    3.987 --    97 C    1.414    89 C    1.408    85 C    1.015
                            93 C    0.105
    89   6 C    3.989 --    91 C    1.446    88 C    1.408    90 H    0.968
                            95 C    0.112
    90   1 H    0.998 --    89 C    0.968
    91   6 C    3.990 --    89 C    1.446    93 C    1.431    92 H    0.971
                            97 C    0.114
    92   1 H    0.998 --    91 C    0.971
    93   6 C    3.986 --    95 C    1.445    91 C    1.431    94 H    0.971
                            88 C    0.105
    94   1 H    0.998 --    93 C    0.971
    95   6 C    3.989 --    93 C    1.445    97 C    1.433    96 H    0.971
                            89 C    0.112
    96   1 H    0.998 --    95 C    0.971
    97   6 C    3.987 --    95 C    1.433    88 C    1.414    98 H    0.964
                            91 C    0.114
    98   1 H    1.000 --    97 C    0.964
    99   6 C    3.935 --   100 O    1.620   101 N    1.301    83 C    0.938
   100   8 O    1.922 --    99 C    1.620   101 N    0.191
   101   7 N    3.471 --    99 C    1.301   103 C    0.986   102 H    0.907
                           100 O    0.191
   102   1 H    0.954 --   101 N    0.907
   103   6 C    3.969 --   111 C    0.995   101 N    0.986   105 C    0.942
                           104 H    0.941
   104   1 H    0.992 --   103 C    0.941
   105   6 C    3.984 --   106 H    0.974   107 H    0.947   108 C    0.946
                           103 C    0.942
   106   1 H    0.997 --   105 C    0.974
   107   1 H    0.995 --   105 C    0.947
   108   6 C    3.940 --   109 O    1.484   110 O    1.472   105 C    0.946
   109   8 O    1.848 --   108 C    1.484   110 O    0.210
   110   8 O    1.832 --   108 C    1.472   109 O    0.210
   111   6 C    3.893 --   112 O    1.897   103 C    0.995   262 H    0.935
   112   8 O    2.057 --   111 C    1.897
   113   7 N    3.007 --   115 C    1.032   263 H    0.958   114 H    0.946
   114   1 H    0.968 --   113 N    0.946
   115   6 C    3.975 --   113 N    1.032   122 C    0.977   117 C    0.947
                           116 H    0.926
   116   1 H    0.984 --   115 C    0.926
   117   6 C    3.947 --   120 O    0.998   119 H    0.971   118 H    0.961
                           115 C    0.947
   118   1 H    0.994 --   117 C    0.961
   119   1 H    0.996 --   117 C    0.971
   120   8 O    1.951 --   117 C    0.998   121 H    0.877
   121   1 H    0.888 --   120 O    0.877
   122   6 C    3.879 --   123 O    1.888   115 C    0.977   264 H    0.936
   123   8 O    2.047 --   122 C    1.888
   124   7 N    3.002 --   126 C    1.030   125 H    0.958   265 H    0.947
   125   1 H    0.974 --   124 N    0.958
   126   6 C    3.969 --   124 N    1.030   146 C    0.974   128 C    0.956
                           127 H    0.928
   127   1 H    0.985 --   126 C    0.928
   128   6 C    3.981 --   131 C    1.004   130 H    0.971   129 H    0.968
                           126 C    0.956
   129   1 H    0.994 --   128 C    0.968
   130   1 H    0.996 --   128 C    0.971
   131   6 C    3.988 --   128 C    1.004   134 C    0.996   133 H    0.972
                           132 H    0.969
   132   1 H    0.996 --   131 C    0.969
   133   1 H    0.995 --   131 C    0.972
   134   6 C    3.949 --   131 C    0.996   137 N    0.983   135 H    0.962
                           136 H    0.960
   135   1 H    0.994 --   134 C    0.962
   136   1 H    0.991 --   134 C    0.960
   137   7 N    3.451 --   139 C    1.296   134 C    0.983   138 H    0.915
                           140 N    0.104
   138   1 H    0.949 --   137 N    0.915
   139   6 C    3.974 --   140 N    1.343   143 N    1.302   137 N    1.296
   140   7 N    3.419 --   139 C    1.343   141 H    0.925   142 H    0.869
                           143 N    0.105   137 N    0.104
   141   1 H    0.947 --   140 N    0.925
   142   1 H    0.940 --   140 N    0.869
   143   7 N    3.380 --   139 C    1.302   144 H    0.925   145 H    0.886
                           140 N    0.105
   144   1 H    0.948 --   143 N    0.925
   145   1 H    0.943 --   143 N    0.886
   146   6 C    3.872 --   147 O    1.888   126 C    0.974   266 H    0.934
   147   8 O    2.040 --   146 C    1.888
   148   7 N    2.968 --   150 C    1.030   149 H    0.941   267 H    0.939
   149   1 H    0.964 --   148 N    0.941
   150   6 C    3.970 --   148 N    1.030   151 H    0.950   152 C    0.947
                           168 C    0.946
   151   1 H    0.991 --   150 C    0.950
   152   6 C    3.958 --   155 C    1.002   154 H    0.969   153 H    0.966
                           150 C    0.947
   153   1 H    0.996 --   152 C    0.966
   154   1 H    0.996 --   152 C    0.969
   155   6 C    3.989 --   158 C    1.008   152 C    1.002   157 H    0.972
                           156 H    0.971
   156   1 H    0.996 --   155 C    0.971
   157   1 H    0.998 --   155 C    0.972
   158   6 C    3.985 --   155 C    1.008   161 C    1.003   159 H    0.975
                           160 H    0.968
   159   1 H    0.996 --   158 C    0.975
   160   1 H    0.994 --   158 C    0.968
   161   6 C    3.924 --   158 C    1.003   164 N    0.971   163 H    0.968
                           162 H    0.962
   162   1 H    0.986 --   161 C    0.962
   163   1 H    0.988 --   161 C    0.968
   164   7 N    3.645 --   161 C    0.971   166 H    0.886   165 H    0.886
                           167 H    0.884
   165   1 H    0.905 --   164 N    0.886
   166   1 H    0.903 --   164 N    0.886
   167   1 H    0.903 --   164 N    0.884
   168   6 C    3.940 --   169 O    1.586   170 N    1.307   150 C    0.946
   169   8 O    1.907 --   168 C    1.586   170 N    0.185
   170   7 N    3.524 --   168 C    1.307   171 C    0.975   180 C    0.970
                           169 O    0.185
   171   6 C    3.962 --   174 C    1.002   170 N    0.975   172 H    0.966
                           173 H    0.964
   172   1 H    0.993 --   171 C    0.966
   173   1 H    0.994 --   171 C    0.964
   174   6 C    3.992 --   177 C    1.003   171 C    1.002   175 H    0.980
                           176 H    0.976
   175   1 H    0.997 --   174 C    0.980
   176   1 H    0.996 --   174 C    0.976
   177   6 C    3.986 --   174 C    1.003   180 C    0.977   178 H    0.975
                           179 H    0.971
   178   1 H    0.996 --   177 C    0.975
   179   1 H    0.993 --   177 C    0.971
   180   6 C    3.970 --   177 C    0.977   170 N    0.970   181 H    0.952
                           182 C    0.941
   181   1 H    0.996 --   180 C    0.952
   182   6 C    3.946 --   183 O    1.630   184 N    1.298   180 C    0.941
   183   8 O    1.942 --   182 C    1.630   184 N    0.195
   184   7 N    3.466 --   182 C    1.298   186 C    0.976   185 H    0.920
                           183 O    0.195
   185   1 H    0.955 --   184 N    0.920
   186   6 C    3.965 --   202 C    0.993   184 N    0.976   188 C    0.944
                           187 H    0.936
   187   1 H    0.990 --   186 C    0.936
   188   6 C    3.981 --   191 C    1.006   190 H    0.967   189 H    0.963
                           186 C    0.944
   189   1 H    0.994 --   188 C    0.963
   190   1 H    0.993 --   188 C    0.967
   191   6 C    3.986 --   192 C    1.416   200 C    1.413   188 C    1.006
                           196 C    0.109
   192   6 C    3.989 --   194 C    1.441   191 C    1.416   193 H    0.970
                           198 C    0.112
   193   1 H    0.999 --   192 C    0.970
   194   6 C    3.990 --   192 C    1.441   196 C    1.437   195 H    0.972
                           200 C    0.112
   195   1 H    0.999 --   194 C    0.972
   196   6 C    3.990 --   198 C    1.439   194 C    1.437   197 H    0.973
                           191 C    0.109
   197   1 H    0.998 --   196 C    0.973
   198   6 C    3.989 --   200 C    1.442   196 C    1.439   199 H    0.969
                           192 C    0.112
   199   1 H    0.997 --   198 C    0.969
   200   6 C    3.988 --   198 C    1.442   191 C    1.413   201 H    0.967
                           194 C    0.112
   201   1 H    0.996 --   200 C    0.967
   202   6 C    3.890 --   203 O    1.891   186 C    0.993   268 H    0.937
   203   8 O    2.048 --   202 C    1.891
   204   7 N    2.979 --   206 C    1.015   269 H    0.943   205 H    0.926
   205   1 H    0.961 --   204 N    0.926
   206   6 C    3.974 --   204 N    1.015   219 C    0.987   207 H    0.963
                           208 C    0.929
   207   1 H    0.994 --   206 C    0.963
   208   6 C    3.967 --   211 C    1.010   210 H    0.961   209 H    0.952
                           206 C    0.929
   209   1 H    0.995 --   208 C    0.952
   210   1 H    0.991 --   208 C    0.961
   211   6 C    3.967 --   217 C    1.559   212 N    1.269   208 C    1.010
   212   7 N    2.985 --   213 C    1.524   211 C    1.269   215 N    0.103
   213   6 C    3.954 --   212 N    1.524   215 N    1.294   214 H    0.963
                           217 C    0.116
   214   1 H    0.997 --   213 C    0.963
   215   7 N    3.601 --   213 C    1.294   217 C    1.206   216 H    0.926
                           212 N    0.103
   216   1 H    0.954 --   215 N    0.926
   217   6 C    3.928 --   211 C    1.559   215 N    1.206   218 H    0.962
                           213 C    0.116
   218   1 H    0.998 --   217 C    0.962
   219   6 C    3.872 --   220 O    1.874   206 C    0.987   270 H    0.939
   220   8 O    2.050 --   219 C    1.874
   221   7 N    2.985 --   223 C    1.026   271 H    0.943   222 H    0.941
   222   1 H    0.965 --   221 N    0.941
   223   6 C    3.969 --   221 N    1.026   224 H    0.958   238 C    0.944
                           225 C    0.942
   224   1 H    0.994 --   223 C    0.958
   225   6 C    3.971 --   227 C    1.006   231 C    0.997   226 H    0.963
                           223 C    0.942
   226   1 H    0.996 --   225 C    0.963
   227   6 C    3.990 --   225 C    1.006   230 H    0.981   229 H    0.979
                           228 H    0.969
   228   1 H    0.997 --   227 C    0.969
   229   1 H    0.997 --   227 C    0.979
   230   1 H    0.996 --   227 C    0.981
   231   6 C    3.995 --   234 C    1.012   225 C    0.997   232 H    0.977
                           233 H    0.973
   232   1 H    0.999 --   231 C    0.977
   233   1 H    0.999 --   231 C    0.973
   234   6 C    3.991 --   231 C    1.012   236 H    0.987   237 H    0.985
                           235 H    0.984
   235   1 H    0.998 --   234 C    0.984
   236   1 H    0.999 --   234 C    0.987
   237   1 H    0.998 --   234 C    0.985
   238   6 C    3.934 --   239 O    1.609   240 N    1.304   223 C    0.944
   239   8 O    1.909 --   238 C    1.609   240 N    0.191
   240   7 N    3.487 --   238 C    1.304   242 C    0.975   241 H    0.901
                           239 O    0.191
   241   1 H    0.950 --   240 N    0.901
   242   6 C    3.963 --   240 N    0.975   257 C    0.962   243 H    0.959
                           244 C    0.957
   243   1 H    0.992 --   242 C    0.959
   244   6 C    3.985 --   246 C    1.004   250 C    0.992   242 C    0.957
                           245 H    0.953
   245   1 H    0.995 --   244 C    0.953
   246   6 C    3.984 --   244 C    1.004   249 H    0.986   248 H    0.981
                           247 H    0.979
   247   1 H    0.995 --   246 C    0.979
   248   1 H    0.998 --   246 C    0.981
   249   1 H    0.998 --   246 C    0.986
   250   6 C    3.991 --   253 C    1.016   244 C    0.992   252 H    0.974
                           251 H    0.973
   251   1 H    0.999 --   250 C    0.973
   252   1 H    0.998 --   250 C    0.974
   253   6 C    3.991 --   250 C    1.016   255 H    0.987   256 H    0.985
                           254 H    0.976
   254   1 H    0.997 --   253 C    0.976
   255   1 H    0.998 --   253 C    0.987
   256   1 H    0.998 --   253 C    0.985
   257   6 C    3.882 --   258 O    1.901   242 C    0.962   272 H    0.939
   258   8 O    2.067 --   257 C    1.901
   259   1 H    0.957 --    60 N    0.943
   260   1 H    0.995 --    79 C    0.938
   261   1 H    0.959 --    81 N    0.944
   262   1 H    0.994 --   111 C    0.935
   263   1 H    0.972 --   113 N    0.958
   264   1 H    0.993 --   122 C    0.936
   265   1 H    0.963 --   124 N    0.947
   266   1 H    0.991 --   146 C    0.934
   267   1 H    0.956 --   148 N    0.939
   268   1 H    0.994 --   202 C    0.937
   269   1 H    0.958 --   204 N    0.943
   270   1 H    0.992 --   219 C    0.939
   271   1 H    0.957 --   221 N    0.943
   272   1 H    0.996 --   257 C    0.939
 ---------------------------------------------------------------------------

Topologies differ in total number of bonds
Writing topology from bond orders to xtbtopo.mol

molecular dipole:
                 x           y           z       tot (Debye)
 q only:       53.348     106.646     205.736
   full:       52.102     105.493     206.131     603.274
molecular quadrupole (traceless):
                xx          xy          yy          xz          yz          zz
 q only:   -12275.639    4203.271   -5217.579    8232.692   16341.505   17493.217
  q+dip:   -12326.541    4100.209   -5359.635    8046.726   16196.476   17686.176
   full:   -12327.528    4100.790   -5359.164    8046.524   16191.929   17686.693


           -------------------------------------------------
          | TOTAL ENERGY             -410.362833058350 Eh   |
          | GRADIENT NORM               0.300685449390 Eh/α |
          | HOMO-LUMO GAP               0.285710820508 eV   |
           -------------------------------------------------

------------------------------------------------------------------------
 * finished run on 2026/01/05 at 09:07:48.784     
------------------------------------------------------------------------
 total:
 * wall-time:     0 d,  0 h,  0 min,  2.704 sec
 *  cpu-time:     0 d,  0 h,  0 min, 39.032 sec
 * ratio c/w:    14.436 speedup
 SCF:
 * wall-time:     0 d,  0 h,  0 min,  2.581 sec
Note: The following floating-point exceptions are signalling: IEEE_UNDERFLOW_FLAG IEEE_DENORMAL
normal termination of xtb
 *  cpu-time:     0 d,  0 h,  0 min, 37.312 sec
 * ratio c/w:    14.456 speedup

