      -----------------------------------------------------------      
     |                   =====================                   |     
     |                           x T B                           |     
     |                   =====================                   |     
     |                         S. Grimme                         |     
     |          Mulliken Center for Theoretical Chemistry        |     
     |                    University of Bonn                     |     
      -----------------------------------------------------------      

   * xtb version 6.7.1 (edcfbbe) compiled by 'conda@c0858423619e' on 2025-09-04

   xtb is free software: you can redistribute it and/or modify it under
   the terms of the GNU Lesser General Public License as published by
   the Free Software Foundation, either version 3 of the License, or
   (at your option) any later version.
   
   xtb is distributed in the hope that it will be useful,
   but WITHOUT ANY WARRANTY; without even the implied warranty of
   MERCHANTABILITY or FITNESS FOR A PARTICULAR PURPOSE.  See the
   GNU Lesser General Public License for more details.
   
   Cite this work as:
   * C. Bannwarth, E. Caldeweyher, S. Ehlert, A. Hansen, P. Pracht,
     J. Seibert, S. Spicher, S. Grimme, WIREs Comput. Mol. Sci., 2020, 11,
     e01493. DOI: 10.1002/wcms.1493
   
   for GFN2-xTB:
   * C. Bannwarth, S. Ehlert and S. Grimme., J. Chem. Theory Comput., 2019,
     15, 1652-1671. DOI: 10.1021/acs.jctc.8b01176
   for GFN1-xTB:
   * S. Grimme, C. Bannwarth, P. Shushkov, J. Chem. Theory Comput., 2017,
     13, 1989-2009. DOI: 10.1021/acs.jctc.7b00118
   for GFN0-xTB:
   * P. Pracht, E. Caldeweyher, S. Ehlert, S. Grimme, ChemRxiv, 2019, preprint.
     DOI: 10.26434/chemrxiv.8326202.v1
   for GFN-FF:
   * S. Spicher and S. Grimme, Angew. Chem. Int. Ed., 2020, 59, 15665-15673.
     DOI: 10.1002/anie.202004239
   
   for ALPB and GBSA implicit solvation:
   * S. Ehlert, M. Stahn, S. Spicher, S. Grimme, J. Chem. Theory Comput.,
     2021, 17, 4250-4261. DOI: 10.1021/acs.jctc.1c00471
   
   for ddCOSMO and CPCM-X implicit solvation:
   * M. Stahn, S. Ehlert, S. Grimme, J. Phys. Chem. A,
     2023, XX, XXXX-XXXX. DOI: 10.1021/acs.jpca.3c04382
   
   for DFT-D4:
   * E. Caldeweyher, C. Bannwarth and S. Grimme, J. Chem. Phys., 2017,
     147, 034112. DOI: 10.1063/1.4993215
   * E. Caldeweyher, S. Ehlert, A. Hansen, H. Neugebauer, S. Spicher,
     C. Bannwarth and S. Grimme, J. Chem. Phys., 2019, 150, 154122.
     DOI: 10.1063/1.5090222
   * E. Caldeweyher, J.-M. Mewes, S. Ehlert and S. Grimme, Phys. Chem. Chem. Phys.
     2020, 22, 8499-8512. DOI: 10.1039/D0CP00502A
   
   for sTDA-xTB:
   * S. Grimme and C. Bannwarth, J. Chem. Phys., 2016, 145, 054103.
     DOI: 10.1063/1.4959605
   
   in the mass-spec context:
   * V. Asgeirsson, C. Bauer and S. Grimme, Chem. Sci., 2017, 8, 4879.
     DOI: 10.1039/c7sc00601b
   * J. Koopman and S. Grimme, ACS Omega 2019, 4, 12, 15120-15133.
     DOI: 10.1021/acsomega.9b02011
   
   for metadynamics refer to:
   * S. Grimme, J. Chem. Theory Comput., 2019, 155, 2847-2862
     DOI: 10.1021/acs.jctc.9b00143
   
   for SPH calculations refer to:
   * S. Spicher and S. Grimme, J. Chem. Theory Comput., 2021, 17, 1701-1714
     DOI: 10.1021/acs.jctc.0c01306
   
   for ONIOM refer to:
   * C. Plett, A. Katbashev, S. Ehlert, S. Grimme, M. Bursch,
     Phys. Chem. Chem. Phys., 2023, 25, 17860-17868. DOI: 10.1039/D3CP02178E
   
   for DIPRO refer to:
   * J. Kohn, N. Gildemeister, S. Grimme, D. Fazzi, A. Hansen,
     J. Chem. Phys., 2023, just accepted.
   
   for PTB refer to:
   * S. Grimme, M. Mueller, A. Hansen, J. Chem. Phys., 2023, 158, 124111.
     DOI: 10.1063/5.0137838
   
   with help from (in alphabetical order)
   P. Atkinson, C. Bannwarth, F. Bohle, G. Brandenburg, E. Caldeweyher
   M. Checinski, S. Dohm, S. Ehlert, S. Ehrlich, I. Gerasimov, C. Hölzer
   A. Katbashev, J. Kohn, J. Koopman, C. Lavigne, S. Lehtola, F. März, M. Müller,
   F. Musil, H. Neugebauer, J. Pisarek, C. Plett, P. Pracht, F. Pultar,
   J. Seibert, P. Shushkov, S. Spicher, M. Stahn, M. Steiner, T. Strunk,
   J. Stückrath, T. Rose, and J. Unsleber
   
 * started run on 2026/01/05 at 09:07:35.762     
   ID    Z sym.   atoms
    1    6 C      1, 3-11, 14-16, 18, 20, 21, 24-29, 32, 62, 64, 67, 68, 70,
                  72, 74, 76, 78, 82, 84, 87, 88, 90, 92, 94, 96, 98, 102,
                  104, 107, 108, 110, 112, 115, 117, 119, 123, 125, 128, 130,
                  134, 136, 140, 142, 144, 148, 151, 155, 159, 161, 163, 167,
                  170, 174
    2    7 N      2, 22, 60, 80, 100, 121, 129, 132, 138, 157
    3    8 O      12, 13, 17, 30, 31, 79, 99, 113, 120, 137, 156, 175
    4   16 S      19, 23
    5    1 H      33-59, 61, 63, 65, 66, 69, 71, 73, 75, 77, 81, 83, 85, 86,
                  89, 91, 93, 95, 97, 101, 103, 105, 106, 109, 111, 114, 116,
                  118, 122, 124, 126, 127, 131, 133, 135, 139, 141, 143,
                  145-147, 149, 150, 152-154, 158, 160, 162, 164-166, 168,
                  169, 171-173, 176-185

           -------------------------------------------------
          |                Calculation Setup                |
           -------------------------------------------------

          program call               : xtb /home/antonio_mesquita/Documentos/gmx_ISA_project/testes_arquivos_primeiros/gmx_ISA_testes/testes_qm_xtb/QM_analysis/QM_FRAMES_CAPPED/frame_4200ps/complex_capped_4200ps.xyz --gfn 2 --alpb water --chrg 1 --etemp 1500 --cycles 1000
          coordinate file            : /home/antonio_mesquita/Documentos/gmx_ISA_project/testes_arquivos_primeiros/gmx_ISA_testes/testes_qm_xtb/QM_analysis/QM_FRAMES_CAPPED/frame_4200ps/complex_capped_4200ps.xyz
          omp threads                :                    16


molecular fragmentation (1/2 indicates fragments):
111111111111111111111111111111111111111111111111111111111112222222222222
222222222222222222222222222222222222222222222222222222222222222222222222
22222222222222222222222222222222222222222
# atoms in fragment 1/2:    59   126
 fragment masses (1/2) :      475.60      831.06
CMA distance (Bohr)    :  18.355
constraining FC (au)   :  0.0500

           -------------------------------------------------
          |                 G F N 2 - x T B                 |
           -------------------------------------------------

        Reference                      10.1021/acs.jctc.8b01176
      * Hamiltonian:
        H0-scaling (s, p, d)           1.850000    2.230000    2.230000
        zeta-weighting                 0.500000
      * Dispersion:
        s8                             2.700000
        a1                             0.520000
        a2                             5.000000
        s9                             5.000000
      * Repulsion:
        kExp                           1.500000    1.000000
        rExp                           1.000000
      * Coulomb:
        alpha                          2.000000
        third order                    shell-resolved
        anisotropic                    true
        a3                             3.000000
        a5                             4.000000
        cn-shift                       1.200000
        cn-exp                         4.000000
        max-rad                        5.000000

      * Solvation model:               ALPB
        Solvent                        water
        Parameter file                 internal GFN2-xTB/ALPB
        Dielectric constant                8.0200E+01
        Reference state                gsolv [1 M gas/solution]
        Free energy shift                  1.0808E-03 Eh       6.7819E-01 kcal/mol
        Temperature                        2.9815E+02 K
        Density                            1.0000E+00 kg/L
        Solvent mass                       1.8000E+01 g/mol
        Interaction kernel             P16
        Born radius scaling (c1)           1.4744E+00
        Born radii integrator          GBOBC
        Born offset                        0.0000E+00 a0       0.0000E+00 AA
        H-bond correction              true
        Ion screening                  false
        Surface tension                    1.0000E-05 Eh       1.5569E+01 dyn/cm
        Grid points                               230 per atom

          ...................................................
          :                      SETUP                      :
          :.................................................:
          :  # basis functions                 473          :
          :  # atomic orbitals                 471          :
          :  # shells                          279          :
          :  # electrons                       498          :
          :  max. iterations                   250          :
          :  Hamiltonian                  GFN2-xTB          :
          :  restarted?                      false          :
          :  GBSA solvation                   true          :
          :  PC potential                    false          :
          :  electronic temp.         1500.0000000     K    :
          :  accuracy                    1.0000000          :
          :  -> integral cutoff          0.2500000E+02      :
          :  -> integral neglect         0.1000000E-07      :
          :  -> SCF convergence          0.1000000E-05 Eh   :
          :  -> wf. convergence          0.1000000E-03 e    :
          :  Broyden damping             0.4000000          :
          :  net charge                          1          :
          :  unpaired electrons                  0          :
          ...................................................

 iter      E             dE          RMSdq      gap      omega  full diag
   1   -279.9302889 -0.279930E+03  0.441E+00    0.00       0.0  T
   2   -280.2402114 -0.309923E+00  0.265E+00    1.42       1.0  T
   3   -280.1403760  0.998355E-01  0.184E+00    0.00       1.0  T
   4   -280.4302471 -0.289871E+00  0.861E-01    0.34       1.0  T
   5   -280.4613602 -0.311131E-01  0.556E-01    0.04       1.0  T
   6   -280.5104450 -0.490848E-01  0.285E-01    0.27       1.0  T
   7   -280.5158407 -0.539567E-02  0.194E-01    0.31       1.0  T
   8   -280.5137995  0.204111E-02  0.212E-01    0.18       1.0  T
   9   -280.5205349 -0.673540E-02  0.955E-02    0.20       1.0  T
  10   -280.5216725 -0.113753E-02  0.575E-02    0.29       1.0  T
  11   -280.5220660 -0.393509E-03  0.330E-02    0.29       1.0  T
  12   -280.5221115 -0.455002E-04  0.274E-02    0.26       1.0  T
  13   -280.5222527 -0.141222E-03  0.102E-02    0.27       1.0  T
  14   -280.5222619 -0.919572E-05  0.698E-03    0.26       1.1  T
  15   -280.5222656 -0.367545E-05  0.523E-03    0.26       1.4  T
  16   -280.5222706 -0.501624E-05  0.173E-03    0.27       4.2  T
  17   -280.5222711 -0.478016E-06  0.600E-04    0.27      12.3  T
  18   -280.5222711 -0.371394E-07  0.315E-04    0.27      23.4  T

   *** convergence criteria satisfied after 18 iterations ***

         #    Occupation            Energy/Eh            Energy/eV
      -------------------------------------------------------------
         1        2.0000           -0.7971534             -21.6916
       ...           ...                  ...                  ...
       243        1.9904           -0.3783784             -10.2962
       244        1.9872           -0.3770285             -10.2595
       245        1.8490           -0.3649559              -9.9310
       246        1.8283           -0.3642922              -9.9129
       247        1.8202           -0.3640534              -9.9064
       248        1.7999           -0.3634915              -9.8911
       249        1.7594           -0.3625077              -9.8643 (HOMO)
       250        0.9683           -0.3527551              -9.5990 (LUMO)
       251        0.0000           -0.2917523              -7.9390
       252        0.0000           -0.2889299              -7.8622
       253        0.0000           -0.2886081              -7.8534
       254        0.0000           -0.2882709              -7.8443
       ...           ...                  ...                  ...
       471                          1.0528603              28.6498
      -------------------------------------------------------------
                  HL-Gap            0.0097526 Eh            0.2654 eV
             Fermi-level           -0.3530561 Eh           -9.6071 eV

 SCC (total)                   0 d,  0 h,  0 min,  1.348 sec
 SCC setup                      ...        0 min,  0.009 sec (  0.649%)
 Dispersion                     ...        0 min,  0.015 sec (  1.130%)
 classical contributions        ...        0 min,  0.003 sec (  0.254%)
 integral evaluation            ...        0 min,  0.044 sec (  3.248%)
 iterations                     ...        0 min,  1.139 sec ( 84.526%)
 molecular gradient             ...        0 min,  0.129 sec (  9.569%)
 printout                       ...        0 min,  0.008 sec (  0.621%)

         :::::::::::::::::::::::::::::::::::::::::::::::::::::
         ::                     SUMMARY                     ::
         :::::::::::::::::::::::::::::::::::::::::::::::::::::
         :: total energy            -276.926328356370 Eh    ::
         :: total w/o Gsasa/hb      -276.905601305537 Eh    ::
         :: gradient norm              0.265389483493 Eh/a0 ::
         :: HOMO-LUMO gap              0.265381256739 eV    ::
         ::.................................................::
         :: SCC energy              -280.512143220929 Eh    ::
         :: -> isotropic ES            0.528885512819 Eh    ::
         :: -> anisotropic ES         -0.011645033999 Eh    ::
         :: -> anisotropic XC          0.136806552999 Eh    ::
         :: -> dispersion             -0.217317280972 Eh    ::
         :: -> Gsolv                  -0.150145141866 Eh    ::
         ::    -> Gelec               -0.129418091034 Eh    ::
         ::    -> Gsasa                0.005528189785 Eh    ::
         ::    -> Ghb                 -0.027336000315 Eh    ::
         ::    -> Gshift               0.001080759698 Eh    ::
         :: repulsion energy           3.585814864559 Eh    ::
         :: add. restraining           0.000000000000 Eh    ::
         :: total charge               1.000000000063 e     ::
         :::::::::::::::::::::::::::::::::::::::::::::::::::::

           -------------------------------------------------
          |                Property Printout                |
           -------------------------------------------------

    * Orbital Energies and Occupations

         #    Occupation            Energy/Eh            Energy/eV
      -------------------------------------------------------------
         1        2.0000           -0.7971534             -21.6916
       ...           ...                  ...                  ...
       237        1.9998           -0.3972272             -10.8091
       238        1.9997           -0.3955048             -10.7622
       239        1.9997           -0.3953964             -10.7593
       240        1.9997           -0.3951994             -10.7539
       241        1.9994           -0.3913956             -10.6504
       242        1.9992           -0.3901901             -10.6176
       243        1.9904           -0.3783784             -10.2962
       244        1.9872           -0.3770285             -10.2595
       245        1.8490           -0.3649559              -9.9310
       246        1.8283           -0.3642922              -9.9129
       247        1.8202           -0.3640534              -9.9064
       248        1.7999           -0.3634915              -9.8911
       249        1.7594           -0.3625077              -9.8643 (HOMO)
       250        0.9683           -0.3527551              -9.5990 (LUMO)
       251        0.0000           -0.2917523              -7.9390
       252        0.0000           -0.2889299              -7.8622
       253        0.0000           -0.2886081              -7.8534
       254        0.0000           -0.2882709              -7.8443
       255        0.0000           -0.2843409              -7.7373
       256                         -0.2638421              -7.1795
       257                         -0.2566414              -6.9836
       258                         -0.2495085              -6.7895
       259                         -0.2321117              -6.3161
       260                         -0.2317366              -6.3059
       ...                                ...                  ...
       471                          1.0528603              28.6498
      -------------------------------------------------------------
                  HL-Gap            0.0097526 Eh            0.2654 eV
             Fermi-level           -0.3530561 Eh           -9.6071 eV

     #   Z          covCN         q      C6AA      α(0)
     1   6 C        2.743     0.269    22.453     7.759
     2   7 N        2.691    -0.120    23.605     7.216
     3   6 C        2.872     0.036    27.182     8.547
     4   6 C        3.687     0.076    19.498     6.321
     5   6 C        3.806    -0.071    21.851     6.655
     6   6 C        2.965     0.018    27.601     8.617
     7   6 C        2.915    -0.044    29.089     8.844
     8   6 C        2.910    -0.035    28.882     8.812
     9   6 C        2.910    -0.036    28.906     8.816
    10   6 C        2.911    -0.037    28.915     8.818
    11   6 C        2.914    -0.042    29.043     8.837
    12   8 O        1.703    -0.272    18.517     5.810
    13   8 O        0.857    -0.497    23.724     6.530
    14   6 C        2.710     0.334    21.316     7.557
    15   6 C        3.746    -0.129    23.042     6.847
    16   6 C        3.841     0.011    20.359     6.419
    17   8 O        0.858    -0.463    22.985     6.428
    18   6 C        3.787    -0.031    21.142     6.549
    19  16 S        1.978    -0.173   148.367    20.501
    20   6 C        3.791    -0.039    21.280     6.569
    21   6 C        3.870     0.027    20.071     6.370
    22   7 N        2.729    -0.292    27.531     7.793
    23  16 S        3.801     1.157   102.261    17.020
    24   6 C        2.950    -0.095    30.377     9.040
    25   6 C        2.943    -0.027    28.687     8.784
    26   6 C        2.913    -0.037    28.911     8.817
    27   6 C        2.969     0.037    27.177     8.551
    28   6 C        2.905    -0.034    28.835     8.805
    29   6 C        2.957    -0.031    28.771     8.798
    30   8 O        0.859    -0.670    27.914     7.084
    31   8 O        0.860    -0.655    27.501     7.031
    32   6 C        3.752    -0.131    23.081     6.851
    33   1 H        0.861     0.244     0.908     1.492
    34   1 H        0.924     0.056     2.252     2.347
    35   1 H        0.924     0.067     2.120     2.277
    36   1 H        0.924     0.102     1.768     2.079
    37   1 H        0.924     0.089     1.890     2.150
    38   1 H        0.925     0.059     2.207     2.323
    39   1 H        0.925     0.048     2.343     2.394
    40   1 H        0.924     0.042     2.424     2.435
    41   1 H        0.924     0.036     2.503     2.474
    42   1 H        0.925     0.033     2.544     2.494
    43   1 H        0.924     0.052     2.289     2.366
    44   1 H        0.924     0.065     2.146     2.291
    45   1 H        0.923     0.073     2.050     2.239
    46   1 H        0.923     0.040     2.444     2.445
    47   1 H        0.924     0.069     2.092     2.262
    48   1 H        0.923     0.087     1.906     2.159
    49   1 H        0.923     0.089     1.888     2.149
    50   1 H        0.924     0.097     1.813     2.106
    51   1 H        0.923     0.088     1.903     2.157
    52   1 H        0.923     0.083     1.949     2.183
    53   1 H        0.924     0.058     2.219     2.329
    54   1 H        0.926     0.097     1.810     2.104
    55   1 H        0.924     0.080     1.979     2.200
    56   1 H        0.925     0.044     2.401     2.423
    57   1 H        0.923     0.072     2.061     2.245
    58   1 H        0.923     0.079     1.988     2.205
    59   1 H        0.923     0.080     1.975     2.198
    60   7 N        2.639    -0.319    28.201     7.887
    61   1 H        0.860     0.192     1.147     1.677
    62   6 C        3.783     0.042    19.889     6.353
    63   1 H        0.924     0.093     1.854     2.129
    64   6 C        3.818    -0.079    21.997     6.675
    65   1 H        0.925     0.080     1.974     2.197
    66   1 H        0.924     0.066     2.129     2.282
    67   6 C        2.966     0.013    27.718     8.636
    68   6 C        2.919    -0.041    29.018     8.834
    69   1 H        0.926     0.041     2.440     2.443
    70   6 C        2.910    -0.036    28.899     8.815
    71   1 H        0.925     0.039     2.459     2.452
    72   6 C        2.908    -0.041    29.014     8.832
    73   1 H        0.926     0.046     2.376     2.411
    74   6 C        2.926    -0.035    28.883     8.813
    75   1 H        0.926     0.036     2.499     2.472
    76   6 C        2.907    -0.044    29.086     8.843
    77   1 H        0.926     0.037     2.483     2.464
    78   6 C        2.757     0.208    23.595     7.954
    79   8 O        0.856    -0.386    21.409     6.203
    80   7 N        2.652    -0.320    28.230     7.891
    81   1 H        0.860     0.187     1.175     1.698
    82   6 C        3.786     0.045    19.839     6.344
    83   1 H        0.924     0.079     1.991     2.207
    84   6 C        3.832    -0.074    21.885     6.656
    85   1 H        0.925     0.064     2.151     2.294
    86   1 H        0.925     0.071     2.078     2.254
    87   6 C        2.961     0.007    27.874     8.660
    88   6 C        2.916    -0.045    29.108     8.847
    89   1 H        0.926     0.036     2.509     2.477
    90   6 C        2.916    -0.039    28.969     8.826
    91   1 H        0.926     0.039     2.469     2.457
    92   6 C        2.903    -0.041    29.023     8.833
    93   1 H        0.925     0.043     2.403     2.424
    94   6 C        2.917    -0.039    28.967     8.826
    95   1 H        0.926     0.040     2.451     2.448
    96   6 C        2.913    -0.044    29.096     8.845
    97   1 H        0.925     0.044     2.393     2.419
    98   6 C        2.756     0.210    23.552     7.947
    99   8 O        0.857    -0.362    20.932     6.134
   100   7 N        2.636    -0.331    28.532     7.933
   101   1 H        0.860     0.198     1.119     1.657
   102   6 C        3.786     0.040    19.915     6.356
   103   1 H        0.924     0.089     1.890     2.150
   104   6 C        3.820    -0.071    21.833     6.650
   105   1 H        0.925     0.058     2.227     2.334
   106   1 H        0.925     0.063     2.164     2.300
   107   6 C        2.984     0.002    27.977     8.676
   108   6 C        2.905    -0.045    29.116     8.848
   109   1 H        0.925     0.050     2.321     2.383
   110   6 C        2.920    -0.061    29.520     8.910
   111   1 H        0.926     0.047     2.364     2.404
   112   6 C        2.839     0.147    24.792     8.160
   113   8 O        1.660    -0.451    21.853     6.311
   114   1 H        0.805     0.365     0.553     1.169
   115   6 C        2.910    -0.073    29.821     8.955
   116   1 H        0.925     0.059     2.212     2.326
   117   6 C        2.911    -0.043    29.073     8.842
   118   1 H        0.925     0.059     2.211     2.325
   119   6 C        2.759     0.205    23.649     7.964
   120   8 O        0.856    -0.394    21.565     6.226
   121   7 N        2.649    -0.302    27.767     7.826
   122   1 H        0.860     0.213     1.042     1.599
   123   6 C        3.785     0.044    19.845     6.345
   124   1 H        0.924     0.066     2.127     2.281
   125   6 C        3.810    -0.079    22.001     6.677
   126   1 H        0.925     0.077     2.007     2.215
   127   1 H        0.924     0.079     1.993     2.208
   128   6 C        3.278     0.049    25.534     8.135
   129   7 N        1.858    -0.309    28.870     7.964
   130   6 C        3.211     0.089    25.419     8.206
   131   1 H        0.925     0.016     2.792     2.613
   132   7 N        2.804    -0.090    23.001     7.123
   133   1 H        0.860     0.197     1.120     1.658
   134   6 C        3.001    -0.031    28.752     8.796
   135   1 H        0.926     0.071     2.076     2.253
   136   6 C        2.773     0.214    23.481     7.936
   137   8 O        0.856    -0.359    20.877     6.126
   138   7 N        2.637    -0.318    28.194     7.886
   139   1 H        0.860     0.190     1.158     1.686
   140   6 C        3.796     0.025    20.156     6.393
   141   1 H        0.925     0.077     2.013     2.219
   142   6 C        3.860    -0.020    20.893     6.500
   143   1 H        0.924     0.050     2.326     2.385
   144   6 C        3.758    -0.123    22.916     6.825
   145   1 H        0.925     0.055     2.259     2.350
   146   1 H        0.925     0.043     2.405     2.425
   147   1 H        0.925     0.047     2.351     2.398
   148   6 C        3.808    -0.061    21.658     6.625
   149   1 H        0.924     0.035     2.518     2.482
   150   1 H        0.924     0.044     2.400     2.423
   151   6 C        3.749    -0.105    22.577     6.777
   152   1 H        0.925     0.038     2.476     2.461
   153   1 H        0.925     0.044     2.400     2.423
   154   1 H        0.924     0.029     2.603     2.523
   155   6 C        2.747     0.278    22.299     7.732
   156   8 O        0.862    -0.505    23.894     6.554
   157   7 N        2.692    -0.153    24.309     7.323
   158   1 H        0.860     0.223     0.996     1.564
   159   6 C        3.792     0.027    20.121     6.388
   160   1 H        0.925     0.085     1.931     2.173
   161   6 C        3.858    -0.025    20.989     6.516
   162   1 H        0.925     0.067     2.118     2.276
   163   6 C        3.751    -0.121    22.883     6.822
   164   1 H        0.924     0.033     2.547     2.496
   165   1 H        0.924     0.069     2.093     2.262
   166   1 H        0.924     0.037     2.489     2.467
   167   6 C        3.803    -0.058    21.615     6.619
   168   1 H        0.924     0.036     2.503     2.474
   169   1 H        0.924     0.040     2.447     2.446
   170   6 C        3.753    -0.119    22.832     6.814
   171   1 H        0.925     0.057     2.240     2.340
   172   1 H        0.924     0.049     2.330     2.387
   173   1 H        0.924     0.039     2.459     2.452
   174   6 C        2.766     0.211    23.527     7.944
   175   8 O        0.856    -0.353    20.767     6.110
   176   1 H        0.860     0.201     1.103     1.645
   177   1 H        0.923     0.067     2.119     2.277
   178   1 H        0.860     0.205     1.083     1.630
   179   1 H        0.923     0.070     2.091     2.261
   180   1 H        0.860     0.188     1.168     1.693
   181   1 H        0.923     0.069     2.101     2.267
   182   1 H        0.860     0.190     1.157     1.685
   183   1 H        0.923     0.058     2.222     2.331
   184   1 H        0.860     0.212     1.047     1.603
   185   1 H        0.923     0.070     2.081     2.256

 Mol. C6AA /au·bohr⁶  :     361600.057331
 Mol. C8AA /au·bohr⁸  :    8610060.147591
 Mol. α(0) /au        :        928.205388


Wiberg/Mayer (AO) data.
largest (>0.10) Wiberg bond orders for each atom

 ---------------------------------------------------------------------------
     #   Z sym  total        # sym  WBO       # sym  WBO       # sym  WBO
 ---------------------------------------------------------------------------
     1   6 C    3.879 --    17 O    1.668     2 N    1.188    21 C    0.941
     2   7 N    3.498 --     3 C    1.190     1 C    1.188    33 H    0.872
                            17 O    0.139
     3   6 C    3.504 --     2 N    1.190    14 C    1.091     5 C    1.038
     4   6 C    3.912 --    15 C    1.009    34 H    0.971    35 H    0.963
                            12 O    0.937
     5   6 C    3.967 --     3 C    1.038     6 C    0.965    37 H    0.960
                            36 H    0.927
     6   6 C    3.956 --    11 C    1.415     7 C    1.407     5 C    0.965
                             9 C    0.108
     7   6 C    3.984 --     8 C    1.445     6 C    1.407    38 H    0.959
                            10 C    0.111
     8   6 C    3.987 --     7 C    1.445     9 C    1.432    39 H    0.969
                            11 C    0.111
     9   6 C    3.986 --    10 C    1.442     8 C    1.432    40 H    0.969
                             6 C    0.108
    10   6 C    3.988 --     9 C    1.442    11 C    1.435    41 H    0.970
                             7 C    0.111
    11   6 C    3.984 --    10 C    1.435     6 C    1.415    42 H    0.970
                             8 C    0.111
    12   8 O    2.253 --    14 C    1.103     4 C    0.937    13 O    0.150
    13   8 O    1.859 --    14 C    1.599    12 O    0.150
    14   6 C    3.867 --    13 O    1.599    12 O    1.103     3 C    1.091
    15   6 C    3.983 --     4 C    1.009    43 H    0.987    45 H    0.981
                            44 H    0.980
    16   6 C    3.965 --    18 C    1.003    22 N    0.980    46 H    0.970
                            47 H    0.962
    17   8 O    1.922 --     1 C    1.668     2 N    0.139
    18   6 C    3.965 --    16 C    1.003    19 S    0.988    48 H    0.967
                            49 H    0.962
    19  16 S    2.113 --    20 C    0.990    18 C    0.988
    20   6 C    3.972 --    19 S    0.990    21 C    0.990    50 H    0.964
                            51 H    0.960
    21   6 C    3.966 --    20 C    0.990    22 N    0.979     1 C    0.941
                            52 H    0.928
    22   7 N    3.167 --    16 C    0.980    21 C    0.979    23 S    0.888
    23  16 S    4.805 --    31 O    1.551    30 O    1.532    22 N    0.888
                            24 C    0.735
    24   6 C    3.933 --    29 C    1.411    25 C    1.392    23 S    0.735
    25   6 C    3.978 --    26 C    1.453    24 C    1.392    53 H    0.964
                            28 C    0.106
    26   6 C    3.978 --    25 C    1.453    27 C    1.389    54 H    0.954
                            29 C    0.102
    27   6 C    3.978 --    28 C    1.405    26 C    1.389    32 C    1.030
    28   6 C    3.981 --    29 C    1.439    27 C    1.405    55 H    0.960
                            25 C    0.106
    29   6 C    3.985 --    28 C    1.439    24 C    1.411    56 H    0.967
                            26 C    0.102
    30   8 O    1.827 --    23 S    1.532
    31   8 O    1.837 --    23 S    1.551
    32   6 C    3.984 --    27 C    1.030    57 H    0.976    59 H    0.966
                            58 H    0.957
    33   1 H    0.939 --     2 N    0.872
    34   1 H    0.996 --     4 C    0.971
    35   1 H    0.992 --     4 C    0.963
    36   1 H    0.961 --     5 C    0.927
    37   1 H    0.992 --     5 C    0.960
    38   1 H    0.996 --     7 C    0.959
    39   1 H    0.997 --     8 C    0.969
    40   1 H    0.997 --     9 C    0.969
    41   1 H    0.998 --    10 C    0.970
    42   1 H    0.999 --    11 C    0.970
    43   1 H    0.997 --    15 C    0.987
    44   1 H    0.996 --    15 C    0.980
    45   1 H    0.994 --    15 C    0.981
    46   1 H    0.998 --    16 C    0.970
    47   1 H    0.995 --    16 C    0.962
    48   1 H    0.991 --    18 C    0.967
    49   1 H    0.991 --    18 C    0.962
    50   1 H    0.990 --    20 C    0.964
    51   1 H    0.991 --    20 C    0.960
    52   1 H    0.990 --    21 C    0.928
    53   1 H    0.996 --    25 C    0.964
    54   1 H    0.989 --    26 C    0.954
    55   1 H    0.993 --    28 C    0.960
    56   1 H    0.998 --    29 C    0.967
    57   1 H    0.994 --    32 C    0.976
    58   1 H    0.993 --    32 C    0.957
    59   1 H    0.993 --    32 C    0.966
    60   7 N    2.984 --    62 C    1.031   176 H    0.947    61 H    0.946
    61   1 H    0.963 --    60 N    0.946
    62   6 C    3.967 --    60 N    1.031    78 C    0.979    63 H    0.943
                            64 C    0.922
    63   1 H    0.991 --    62 C    0.943
    64   6 C    3.961 --    67 C    1.011    65 H    0.964    66 H    0.951
                            62 C    0.922
    65   1 H    0.993 --    64 C    0.964
    66   1 H    0.992 --    64 C    0.951
    67   6 C    3.984 --    76 C    1.410    68 C    1.405    64 C    1.011
                            72 C    0.109
    68   6 C    3.984 --    70 C    1.450    67 C    1.405    69 H    0.968
                            74 C    0.108
    69   1 H    0.998 --    68 C    0.968
    70   6 C    3.988 --    68 C    1.450    72 C    1.430    71 H    0.971
                            76 C    0.110
    71   1 H    0.998 --    70 C    0.971
    72   6 C    3.981 --    74 C    1.436    70 C    1.430    73 H    0.971
                            67 C    0.109
    73   1 H    0.997 --    72 C    0.971
    74   6 C    3.990 --    76 C    1.444    72 C    1.436    75 H    0.971
                            68 C    0.108
    75   1 H    0.998 --    74 C    0.971
    76   6 C    3.985 --    74 C    1.444    67 C    1.410    77 H    0.966
                            70 C    0.110
    77   1 H    0.999 --    76 C    0.966
    78   6 C    3.867 --    79 O    1.885    62 C    0.979   177 H    0.936
    79   8 O    2.031 --    78 C    1.885
    80   7 N    2.978 --    82 C    1.025    81 H    0.949   178 H    0.943
    81   1 H    0.965 --    80 N    0.949
    82   6 C    3.971 --    80 N    1.025    98 C    0.974    83 H    0.952
                            84 C    0.932
    83   1 H    0.993 --    82 C    0.952
    84   6 C    3.962 --    87 C    1.005    85 H    0.965    86 H    0.963
                            82 C    0.932
    85   1 H    0.995 --    84 C    0.965
    86   1 H    0.994 --    84 C    0.963
    87   6 C    3.982 --    96 C    1.423    88 C    1.401    84 C    1.005
                            92 C    0.107
    88   6 C    3.988 --    90 C    1.452    87 C    1.401    89 H    0.970
                            94 C    0.112
    89   1 H    0.999 --    88 C    0.970
    90   6 C    3.990 --    88 C    1.452    92 C    1.426    91 H    0.972
                            96 C    0.112
    91   1 H    0.998 --    90 C    0.972
    92   6 C    3.985 --    94 C    1.449    90 C    1.426    93 H    0.970
                            87 C    0.107
    93   1 H    0.997 --    92 C    0.970
    94   6 C    3.988 --    92 C    1.449    96 C    1.429    95 H    0.968
                            88 C    0.112
    95   1 H    0.998 --    94 C    0.968
    96   6 C    3.987 --    94 C    1.429    87 C    1.423    97 H    0.969
                            90 C    0.112
    97   1 H    0.998 --    96 C    0.969
    98   6 C    3.873 --    99 O    1.907    82 C    0.974   179 H    0.935
    99   8 O    2.051 --    98 C    1.907
   100   7 N    2.985 --   102 C    1.028   180 H    0.951   101 H    0.942
   101   1 H    0.961 --   100 N    0.942
   102   6 C    3.971 --   100 N    1.028   119 C    0.977   104 C    0.944
                           103 H    0.930
   103   1 H    0.985 --   102 C    0.930
   104   6 C    3.980 --   107 C    1.004   106 H    0.969   105 H    0.965
                           102 C    0.944
   105   1 H    0.995 --   104 C    0.965
   106   1 H    0.995 --   104 C    0.969
   107   6 C    3.979 --   117 C    1.409   108 C    1.407   104 C    1.004
   108   6 C    3.986 --   110 C    1.451   107 C    1.407   109 H    0.967
                           115 C    0.106
   109   1 H    0.997 --   108 C    0.967
   110   6 C    3.983 --   108 C    1.451   112 C    1.360   111 H    0.968
                           117 C    0.108
   111   1 H    0.997 --   110 C    0.968
   112   6 C    3.929 --   115 C    1.368   110 C    1.360   113 O    1.071
   113   8 O    2.074 --   112 C    1.071   114 H    0.844
   114   1 H    0.866 --   113 O    0.844
   115   6 C    3.980 --   117 C    1.444   112 C    1.368   116 H    0.966
                           108 C    0.106
   116   1 H    0.996 --   115 C    0.966
   117   6 C    3.984 --   115 C    1.444   107 C    1.409   118 H    0.964
                           110 C    0.108
   118   1 H    0.996 --   117 C    0.964
   119   6 C    3.860 --   120 O    1.877   102 C    0.977   181 H    0.934
   120   8 O    2.027 --   119 C    1.877
   121   7 N    2.979 --   123 C    1.026   182 H    0.950   122 H    0.913
   122   1 H    0.954 --   121 N    0.913
   123   6 C    3.971 --   121 N    1.026   136 C    0.985   124 H    0.951
                           125 C    0.925
   124   1 H    0.986 --   123 C    0.951
   125   6 C    3.957 --   128 C    1.011   126 H    0.962   127 H    0.960
                           123 C    0.925
   126   1 H    0.993 --   125 C    0.962
   127   1 H    0.994 --   125 C    0.960
   128   6 C    3.961 --   134 C    1.564   129 N    1.257   125 C    1.011
   129   7 N    2.989 --   130 C    1.527   128 C    1.257   132 N    0.110
   130   6 C    3.957 --   129 N    1.527   132 N    1.301   131 H    0.965
                           134 C    0.109
   131   1 H    1.000 --   130 C    0.965
   132   7 N    3.601 --   130 C    1.301   134 C    1.190   133 H    0.932
                           129 N    0.110
   133   1 H    0.961 --   132 N    0.932
   134   6 C    3.914 --   128 C    1.564   132 N    1.190   135 H    0.967
                           130 C    0.109
   135   1 H    0.995 --   134 C    0.967
   136   6 C    3.880 --   137 O    1.890   123 C    0.985   183 H    0.939
   137   8 O    2.062 --   136 C    1.890
   138   7 N    2.964 --   140 C    1.025   139 H    0.944   184 H    0.940
   139   1 H    0.963 --   138 N    0.944
   140   6 C    3.951 --   138 N    1.025   141 H    0.952   155 C    0.947
                           142 C    0.929
   141   1 H    0.991 --   140 C    0.952
   142   6 C    3.951 --   144 C    1.009   148 C    0.991   143 H    0.965
                           140 C    0.929
   143   1 H    0.997 --   142 C    0.965
   144   6 C    3.982 --   142 C    1.009   146 H    0.978   147 H    0.976
                           145 H    0.975
   145   1 H    0.994 --   144 C    0.975
   146   1 H    0.998 --   144 C    0.978
   147   1 H    0.998 --   144 C    0.976
   148   6 C    3.988 --   151 C    1.014   142 C    0.991   149 H    0.974
                           150 H    0.973
   149   1 H    0.999 --   148 C    0.974
   150   1 H    0.998 --   148 C    0.973
   151   6 C    3.986 --   148 C    1.014   152 H    0.988   153 H    0.980
                           154 H    0.974
   152   1 H    0.998 --   151 C    0.988
   153   1 H    0.998 --   151 C    0.980
   154   1 H    0.998 --   151 C    0.974
   155   6 C    3.936 --   156 O    1.612   157 N    1.304   140 C    0.947
   156   8 O    1.918 --   155 C    1.612   157 N    0.192
   157   7 N    3.484 --   155 C    1.304   159 C    0.974   158 H    0.907
                           156 O    0.192
   158   1 H    0.950 --   157 N    0.907
   159   6 C    3.959 --   157 N    0.974   174 C    0.973   160 H    0.952
                           161 C    0.946
   160   1 H    0.993 --   159 C    0.952
   161   6 C    3.981 --   163 C    1.000   167 C    0.991   162 H    0.959
                           159 C    0.946
   162   1 H    0.995 --   161 C    0.959
   163   6 C    3.992 --   161 C    1.000   164 H    0.988   166 H    0.984
                           165 H    0.974
   164   1 H    0.999 --   163 C    0.988
   165   1 H    0.994 --   163 C    0.974
   166   1 H    0.999 --   163 C    0.984
   167   6 C    3.994 --   170 C    1.019   161 C    0.991   169 H    0.973
                           168 H    0.971
   168   1 H    0.999 --   167 C    0.971
   169   1 H    0.998 --   167 C    0.973
   170   6 C    3.986 --   167 C    1.019   173 H    0.979   172 H    0.979
                           171 H    0.979
   171   1 H    0.997 --   170 C    0.979
   172   1 H    0.997 --   170 C    0.979
   173   1 H    0.997 --   170 C    0.979
   174   6 C    3.882 --   175 O    1.900   159 C    0.973   185 H    0.938
   175   8 O    2.073 --   174 C    1.900
   176   1 H    0.959 --    60 N    0.947
   177   1 H    0.993 --    78 C    0.936
   178   1 H    0.958 --    80 N    0.943
   179   1 H    0.991 --    98 C    0.935
   180   1 H    0.964 --   100 N    0.951
   181   1 H    0.991 --   119 C    0.934
   182   1 H    0.963 --   121 N    0.950
   183   1 H    0.994 --   136 C    0.939
   184   1 H    0.955 --   138 N    0.940
   185   1 H    0.994 --   174 C    0.938
 ---------------------------------------------------------------------------

Topologies differ in total number of bonds
Writing topology from bond orders to xtbtopo.mol

molecular dipole:
                 x           y           z       tot (Debye)
 q only:       41.381      17.161      94.395
   full:       41.260      16.876      95.304     267.427
molecular quadrupole (traceless):
                xx          xy          yy          xz          yz          zz
 q only:    -2851.862     962.530   -5058.110    5810.683    2504.844    7909.971
Note: The following floating-point exceptions are signalling: IEEE_UNDERFLOW_FLAG IEEE_DENORMAL
normal termination of xtb
  q+dip:    -2947.212     951.340   -5168.477    5851.783    2465.569    8115.689
   full:    -2947.307     947.966   -5163.471    5856.589    2466.011    8110.778


           -------------------------------------------------
          | TOTAL ENERGY             -276.926328356370 Eh   |
          | GRADIENT NORM               0.265389483493 Eh/α |
          | HOMO-LUMO GAP               0.265381256739 eV   |
           -------------------------------------------------

------------------------------------------------------------------------
 * finished run on 2026/01/05 at 09:07:37.189     
------------------------------------------------------------------------
 total:
 * wall-time:     0 d,  0 h,  0 min,  1.427 sec
 *  cpu-time:     0 d,  0 h,  0 min, 21.024 sec
 * ratio c/w:    14.735 speedup
 SCF:
 * wall-time:     0 d,  0 h,  0 min,  1.350 sec
 *  cpu-time:     0 d,  0 h,  0 min, 19.903 sec
 * ratio c/w:    14.742 speedup

