      -----------------------------------------------------------      
     |                   =====================                   |     
     |                           x T B                           |     
     |                   =====================                   |     
     |                         S. Grimme                         |     
     |          Mulliken Center for Theoretical Chemistry        |     
     |                    University of Bonn                     |     
      -----------------------------------------------------------      

   * xtb version 6.7.1 (edcfbbe) compiled by 'conda@c0858423619e' on 2025-09-04

   xtb is free software: you can redistribute it and/or modify it under
   the terms of the GNU Lesser General Public License as published by
   the Free Software Foundation, either version 3 of the License, or
   (at your option) any later version.
   
   xtb is distributed in the hope that it will be useful,
   but WITHOUT ANY WARRANTY; without even the implied warranty of
   MERCHANTABILITY or FITNESS FOR A PARTICULAR PURPOSE.  See the
   GNU Lesser General Public License for more details.
   
   Cite this work as:
   * C. Bannwarth, E. Caldeweyher, S. Ehlert, A. Hansen, P. Pracht,
     J. Seibert, S. Spicher, S. Grimme, WIREs Comput. Mol. Sci., 2020, 11,
     e01493. DOI: 10.1002/wcms.1493
   
   for GFN2-xTB:
   * C. Bannwarth, S. Ehlert and S. Grimme., J. Chem. Theory Comput., 2019,
     15, 1652-1671. DOI: 10.1021/acs.jctc.8b01176
   for GFN1-xTB:
   * S. Grimme, C. Bannwarth, P. Shushkov, J. Chem. Theory Comput., 2017,
     13, 1989-2009. DOI: 10.1021/acs.jctc.7b00118
   for GFN0-xTB:
   * P. Pracht, E. Caldeweyher, S. Ehlert, S. Grimme, ChemRxiv, 2019, preprint.
     DOI: 10.26434/chemrxiv.8326202.v1
   for GFN-FF:
   * S. Spicher and S. Grimme, Angew. Chem. Int. Ed., 2020, 59, 15665-15673.
     DOI: 10.1002/anie.202004239
   
   for ALPB and GBSA implicit solvation:
   * S. Ehlert, M. Stahn, S. Spicher, S. Grimme, J. Chem. Theory Comput.,
     2021, 17, 4250-4261. DOI: 10.1021/acs.jctc.1c00471
   
   for ddCOSMO and CPCM-X implicit solvation:
   * M. Stahn, S. Ehlert, S. Grimme, J. Phys. Chem. A,
     2023, XX, XXXX-XXXX. DOI: 10.1021/acs.jpca.3c04382
   
   for DFT-D4:
   * E. Caldeweyher, C. Bannwarth and S. Grimme, J. Chem. Phys., 2017,
     147, 034112. DOI: 10.1063/1.4993215
   * E. Caldeweyher, S. Ehlert, A. Hansen, H. Neugebauer, S. Spicher,
     C. Bannwarth and S. Grimme, J. Chem. Phys., 2019, 150, 154122.
     DOI: 10.1063/1.5090222
   * E. Caldeweyher, J.-M. Mewes, S. Ehlert and S. Grimme, Phys. Chem. Chem. Phys.
     2020, 22, 8499-8512. DOI: 10.1039/D0CP00502A
   
   for sTDA-xTB:
   * S. Grimme and C. Bannwarth, J. Chem. Phys., 2016, 145, 054103.
     DOI: 10.1063/1.4959605
   
   in the mass-spec context:
   * V. Asgeirsson, C. Bauer and S. Grimme, Chem. Sci., 2017, 8, 4879.
     DOI: 10.1039/c7sc00601b
   * J. Koopman and S. Grimme, ACS Omega 2019, 4, 12, 15120-15133.
     DOI: 10.1021/acsomega.9b02011
   
   for metadynamics refer to:
   * S. Grimme, J. Chem. Theory Comput., 2019, 155, 2847-2862
     DOI: 10.1021/acs.jctc.9b00143
   
   for SPH calculations refer to:
   * S. Spicher and S. Grimme, J. Chem. Theory Comput., 2021, 17, 1701-1714
     DOI: 10.1021/acs.jctc.0c01306
   
   for ONIOM refer to:
   * C. Plett, A. Katbashev, S. Ehlert, S. Grimme, M. Bursch,
     Phys. Chem. Chem. Phys., 2023, 25, 17860-17868. DOI: 10.1039/D3CP02178E
   
   for DIPRO refer to:
   * J. Kohn, N. Gildemeister, S. Grimme, D. Fazzi, A. Hansen,
     J. Chem. Phys., 2023, just accepted.
   
   for PTB refer to:
   * S. Grimme, M. Mueller, A. Hansen, J. Chem. Phys., 2023, 158, 124111.
     DOI: 10.1063/5.0137838
   
   with help from (in alphabetical order)
   P. Atkinson, C. Bannwarth, F. Bohle, G. Brandenburg, E. Caldeweyher
   M. Checinski, S. Dohm, S. Ehlert, S. Ehrlich, I. Gerasimov, C. Hölzer
   A. Katbashev, J. Kohn, J. Koopman, C. Lavigne, S. Lehtola, F. März, M. Müller,
   F. Musil, H. Neugebauer, J. Pisarek, C. Plett, P. Pracht, F. Pultar,
   J. Seibert, P. Shushkov, S. Spicher, M. Stahn, M. Steiner, T. Strunk,
   J. Stückrath, T. Rose, and J. Unsleber
   
 * started run on 2026/01/05 at 09:07:54.529     
   ID    Z sym.   atoms
    1    6 C      1, 3-11, 14-16, 18, 20, 21, 24-29, 32
    2    7 N      2, 22
    3    8 O      12, 13, 17, 30, 31
    4   16 S      19, 23
    5    1 H      33-59

           -------------------------------------------------
          |                Calculation Setup                |
           -------------------------------------------------

          program call               : xtb /home/antonio_mesquita/Documentos/gmx_ISA_project/testes_arquivos_primeiros/gmx_ISA_testes/testes_qm_xtb/QM_analysis/QM_FRAMES_CAPPED/frame_600ps/ligand_isolated_600ps.xyz --gfn 2 --alpb water --chrg 1 --etemp 1500 --cycles 1000
          coordinate file            : /home/antonio_mesquita/Documentos/gmx_ISA_project/testes_arquivos_primeiros/gmx_ISA_testes/testes_qm_xtb/QM_analysis/QM_FRAMES_CAPPED/frame_600ps/ligand_isolated_600ps.xyz
          omp threads                :                    16


           -------------------------------------------------
          |                 G F N 2 - x T B                 |
           -------------------------------------------------

        Reference                      10.1021/acs.jctc.8b01176
      * Hamiltonian:
        H0-scaling (s, p, d)           1.850000    2.230000    2.230000
        zeta-weighting                 0.500000
      * Dispersion:
        s8                             2.700000
        a1                             0.520000
        a2                             5.000000
        s9                             5.000000
      * Repulsion:
        kExp                           1.500000    1.000000
        rExp                           1.000000
      * Coulomb:
        alpha                          2.000000
        third order                    shell-resolved
        anisotropic                    true
        a3                             3.000000
        a5                             4.000000
        cn-shift                       1.200000
        cn-exp                         4.000000
        max-rad                        5.000000

      * Solvation model:               ALPB
        Solvent                        water
        Parameter file                 internal GFN2-xTB/ALPB
        Dielectric constant                8.0200E+01
        Reference state                gsolv [1 M gas/solution]
        Free energy shift                  1.0808E-03 Eh       6.7819E-01 kcal/mol
        Temperature                        2.9815E+02 K
        Density                            1.0000E+00 kg/L
        Solvent mass                       1.8000E+01 g/mol
        Interaction kernel             P16
        Born radius scaling (c1)           1.4744E+00
        Born radii integrator          GBOBC
        Born offset                        0.0000E+00 a0       0.0000E+00 AA
        H-bond correction              true
        Ion screening                  false
        Surface tension                    1.0000E-05 Eh       1.5569E+01 dyn/cm
        Grid points                               230 per atom

          ...................................................
          :                      SETUP                      :
          :.................................................:
          :  # basis functions                 167          :
          :  # atomic orbitals                 165          :
          :  # shells                           93          :
          :  # electrons                       170          :
          :  max. iterations                   250          :
          :  Hamiltonian                  GFN2-xTB          :
          :  restarted?                      false          :
          :  GBSA solvation                   true          :
          :  PC potential                    false          :
          :  electronic temp.         1500.0000000     K    :
          :  accuracy                    1.0000000          :
          :  -> integral cutoff          0.2500000E+02      :
          :  -> integral neglect         0.1000000E-07      :
          :  -> SCF convergence          0.1000000E-05 Eh   :
          :  -> wf. convergence          0.1000000E-03 e    :
          :  Broyden damping             0.4000000          :
          :  net charge                          1          :
          :  unpaired electrons                  0          :
          ...................................................

 iter      E             dE          RMSdq      gap      omega  full diag
   1    -96.2199117 -0.962199E+02  0.494E+00    0.86       0.0  T
   2    -96.2313410 -0.114293E-01  0.382E+00    0.37       1.0  T
   3    -96.3133198 -0.819788E-01  0.279E+00    1.46       1.0  T
   4    -96.4035424 -0.902226E-01  0.148E+00    0.59       1.0  T
   5    -96.3768424  0.267000E-01  0.127E+00    0.99       1.0  T
   6    -96.4250380 -0.481956E-01  0.322E-01    0.41       1.0  T
   7    -96.4259110 -0.872985E-03  0.134E-01    0.32       1.0  T
   8    -96.4261303 -0.219279E-03  0.679E-02    0.36       1.0  T
   9    -96.4261961 -0.657825E-04  0.236E-02    0.35       1.0  T
  10    -96.4262004 -0.436951E-05  0.163E-02    0.35       1.0  T
  11    -96.4262044 -0.401339E-05  0.834E-03    0.35       1.6  T
  12    -96.4262053 -0.895684E-06  0.419E-03    0.35       3.1  T
  13    -96.4262056 -0.279491E-06  0.120E-03    0.35      10.8  T
  14    -96.4262056 -0.265126E-07  0.466E-04    0.35      27.9  T
  15    -96.4262056  0.879609E-09  0.403E-04    0.35      32.3  T

   *** convergence criteria satisfied after 15 iterations ***

         #    Occupation            Energy/Eh            Energy/eV
      -------------------------------------------------------------
         1        2.0000           -0.8024697             -21.8363
       ...           ...                  ...                  ...
        79        1.9992           -0.4302704             -11.7083
        80        1.9983           -0.4266858             -11.6107
        81        1.9967           -0.4234157             -11.5217
        82        1.9894           -0.4178702             -11.3708
        83        1.9795           -0.4147287             -11.2853
        84        1.9689           -0.4127167             -11.2306
        85        1.6196           -0.3998958             -10.8817 (HOMO)
        86        0.4491           -0.3871274             -10.5343 (LUMO)
        87                         -0.2857474              -7.7756
        88                         -0.2633552              -7.1663
        89                         -0.2483504              -6.7580
        90                         -0.2448122              -6.6617
       ...                                ...                  ...
       165                          1.0167465              27.6671
      -------------------------------------------------------------
                  HL-Gap            0.0127684 Eh            0.3474 eV
             Fermi-level           -0.3930141 Eh          -10.6945 eV

 SCC (total)                   0 d,  0 h,  0 min,  0.225 sec
 SCC setup                      ...        0 min,  0.003 sec (  1.479%)
 Dispersion                     ...        0 min,  0.004 sec (  1.585%)
 classical contributions        ...        0 min,  0.000 sec (  0.071%)
 integral evaluation            ...        0 min,  0.008 sec (  3.609%)
 iterations                     ...        0 min,  0.171 sec ( 76.260%)
 molecular gradient             ...        0 min,  0.036 sec ( 15.940%)
 printout                       ...        0 min,  0.002 sec (  1.043%)

         :::::::::::::::::::::::::::::::::::::::::::::::::::::
         ::                     SUMMARY                     ::
         :::::::::::::::::::::::::::::::::::::::::::::::::::::
         :: total energy             -95.284873611433 Eh    ::
         :: total w/o Gsasa/hb       -95.281069263007 Eh    ::
         :: gradient norm              0.158242347762 Eh/a0 ::
         :: HOMO-LUMO gap              0.347445997795 eV    ::
         ::.................................................::
         :: SCC energy               -96.425200183807 Eh    ::
         :: -> isotropic ES            0.248966716967 Eh    ::
         :: -> anisotropic ES         -0.027621731378 Eh    ::
         :: -> anisotropic XC          0.038521125011 Eh    ::
         :: -> dispersion             -0.069053785419 Eh    ::
         :: -> Gsolv                  -0.099429734556 Eh    ::
         ::    -> Gelec               -0.095625386130 Eh    ::
         ::    -> Gsasa                0.003436703758 Eh    ::
         ::    -> Ghb                 -0.008321811882 Eh    ::
         ::    -> Gshift               0.001080759698 Eh    ::
         :: repulsion energy           1.140326572374 Eh    ::
         :: add. restraining           0.000000000000 Eh    ::
         :: total charge               1.000000000001 e     ::
         :::::::::::::::::::::::::::::::::::::::::::::::::::::

           -------------------------------------------------
          |                Property Printout                |
           -------------------------------------------------

    * Orbital Energies and Occupations

         #    Occupation            Energy/Eh            Energy/eV
      -------------------------------------------------------------
         1        2.0000           -0.8024697             -21.8363
       ...           ...                  ...                  ...
        73        2.0000           -0.4560041             -12.4085
        74        2.0000           -0.4538470             -12.3498
        75        1.9999           -0.4418869             -12.0244
        76        1.9999           -0.4402975             -11.9811
        77        1.9998           -0.4365942             -11.8803
        78        1.9996           -0.4339739             -11.8090
        79        1.9992           -0.4302704             -11.7083
        80        1.9983           -0.4266858             -11.6107
        81        1.9967           -0.4234157             -11.5217
        82        1.9894           -0.4178702             -11.3708
        83        1.9795           -0.4147287             -11.2853
        84        1.9689           -0.4127167             -11.2306
        85        1.6196           -0.3998958             -10.8817 (HOMO)
        86        0.4491           -0.3871274             -10.5343 (LUMO)
        87                         -0.2857474              -7.7756
        88                         -0.2633552              -7.1663
        89                         -0.2483504              -6.7580
        90                         -0.2448122              -6.6617
        91                         -0.2398328              -6.5262
        92                         -0.2392314              -6.5098
        93                         -0.2306022              -6.2750
        94                         -0.1880373              -5.1168
        95                         -0.1808688              -4.9217
        96                         -0.1496262              -4.0715
       ...                                ...                  ...
       165                          1.0167465              27.6671
      -------------------------------------------------------------
                  HL-Gap            0.0127684 Eh            0.3474 eV
             Fermi-level           -0.3930141 Eh          -10.6945 eV

     #   Z          covCN         q      C6AA      α(0)
     1   6 C        2.746     0.281    22.237     7.721
     2   7 N        2.691    -0.069    22.583     7.058
     3   6 C        2.871     0.094    25.918     8.345
     4   6 C        3.675     0.070    19.633     6.349
     5   6 C        3.803    -0.077    21.973     6.674
     6   6 C        2.953     0.034    27.239     8.560
     7   6 C        2.925    -0.033    28.827     8.805
     8   6 C        2.905    -0.030    28.758     8.793
     9   6 C        2.916    -0.030    28.750     8.793
    10   6 C        2.902    -0.031    28.776     8.796
    11   6 C        2.932    -0.037    28.913     8.818
    12   8 O        1.702    -0.247    18.099     5.744
    13   8 O        0.857    -0.429    22.261     6.326
    14   6 C        2.698     0.350    21.056     7.510
    15   6 C        3.746    -0.129    23.057     6.849
    16   6 C        3.812    -0.007    20.688     6.474
    17   8 O        0.857    -0.395    21.572     6.227
    18   6 C        3.789    -0.055    21.568     6.614
    19  16 S        1.964     0.061   138.572    19.813
    20   6 C        3.792    -0.068    21.820     6.652
    21   6 C        3.838     0.016    20.273     6.405
    22   7 N        2.732    -0.246    26.406     7.632
    23  16 S        3.748     1.153   102.378    17.030
    24   6 C        2.955    -0.094    30.373     9.039
    25   6 C        2.939    -0.033    28.823     8.805
    26   6 C        2.917    -0.037    28.912     8.817
    27   6 C        2.958     0.040    27.096     8.538
    28   6 C        2.914    -0.032    28.803     8.801
    29   6 C        2.939    -0.029    28.735     8.792
    30   8 O        0.859    -0.658    27.574     7.040
    31   8 O        0.859    -0.642    27.177     6.989
    32   6 C        3.750    -0.135    23.163     6.864
    33   1 H        0.861     0.284     0.762     1.368
    34   1 H        0.924     0.080     1.982     2.202
    35   1 H        0.923     0.096     1.824     2.112
    36   1 H        0.924     0.123     1.591     1.972
    37   1 H        0.923     0.130     1.535     1.938
    38   1 H        0.924     0.063     2.167     2.302
    39   1 H        0.925     0.062     2.181     2.310
    40   1 H        0.925     0.051     2.312     2.378
    41   1 H        0.924     0.057     2.239     2.340
    42   1 H        0.926     0.056     2.248     2.345
    43   1 H        0.924     0.060     2.201     2.320
    44   1 H        0.923     0.064     2.159     2.298
    45   1 H        0.924     0.062     2.173     2.305
    46   1 H        0.923     0.068     2.103     2.268
    47   1 H        0.923     0.083     1.947     2.182
    48   1 H        0.924     0.114     1.661     2.016
    49   1 H        0.923     0.123     1.590     1.972
    50   1 H        0.923     0.131     1.531     1.935
    51   1 H        0.923     0.121     1.609     1.984
    52   1 H        0.922     0.114     1.659     2.014
    53   1 H        0.926     0.079     1.993     2.208
    54   1 H        0.925     0.090     1.879     2.143
    55   1 H        0.925     0.075     2.028     2.227
    56   1 H        0.925     0.052     2.290     2.366
    57   1 H        0.923     0.059     2.216     2.328
    58   1 H        0.923     0.066     2.133     2.284
    59   1 H        0.923     0.085     1.932     2.174

 Mol. C6AA /au·bohr⁶  :      43394.917383
 Mol. C8AA /au·bohr⁸  :    1117364.477746
 Mol. α(0) /au        :        323.963498


Wiberg/Mayer (AO) data.
largest (>0.10) Wiberg bond orders for each atom

 ---------------------------------------------------------------------------
     #   Z sym  total        # sym  WBO       # sym  WBO       # sym  WBO
 ---------------------------------------------------------------------------
     1   6 C    3.892 --    17 O    1.736     2 N    1.148    21 C    0.933
     2   7 N    3.549 --     3 C    1.297     1 C    1.148    33 H    0.856
                            17 O    0.115
     3   6 C    3.621 --     2 N    1.297     5 C    1.075    14 C    1.033
     4   6 C    3.899 --    15 C    1.007    35 H    0.963    34 H    0.958
                            12 O    0.927
     5   6 C    3.950 --     3 C    1.075    36 H    0.937     6 C    0.925
                            37 H    0.921
     6   6 C    3.931 --     7 C    1.410    11 C    1.408     5 C    0.925
                             9 C    0.104
     7   6 C    3.971 --     8 C    1.433     6 C    1.410    38 H    0.963
                            10 C    0.106
     8   6 C    3.963 --     7 C    1.433     9 C    1.425    39 H    0.966
                            11 C    0.108
     9   6 C    3.969 --    10 C    1.439     8 C    1.425    40 H    0.967
                             6 C    0.104
    10   6 C    3.970 --     9 C    1.439    11 C    1.427    41 H    0.966
                             7 C    0.106
    11   6 C    3.966 --    10 C    1.427     6 C    1.408    42 H    0.967
                             8 C    0.108
    12   8 O    2.316 --    14 C    1.146     4 C    0.927    13 O    0.187
    13   8 O    1.949 --    14 C    1.654    12 O    0.187
    14   6 C    3.907 --    13 O    1.654    12 O    1.146     3 C    1.033
    15   6 C    3.977 --     4 C    1.007    44 H    0.984    45 H    0.980
                            43 H    0.978
    16   6 C    3.933 --    18 C    1.002    22 N    0.985    47 H    0.950
                            46 H    0.949
    17   8 O    2.000 --     1 C    1.736     2 N    0.115
    18   6 C    3.940 --    16 C    1.002    19 S    0.994    49 H    0.955
                            48 H    0.946
    19  16 S    2.131 --    20 C    0.999    18 C    0.994
    20   6 C    3.946 --    19 S    0.999    21 C    0.984    51 H    0.954
                            50 H    0.945
    21   6 C    3.952 --    20 C    0.984    22 N    0.976     1 C    0.933
                            52 H    0.928
    22   7 N    3.200 --    16 C    0.985    21 C    0.976    23 S    0.898
    23  16 S    4.827 --    31 O    1.553    30 O    1.538    22 N    0.898
                            24 C    0.744
    24   6 C    3.938 --    29 C    1.405    25 C    1.398    23 S    0.744
                            27 C    0.103
    25   6 C    3.980 --    26 C    1.455    24 C    1.398    53 H    0.962
                            28 C    0.104
    26   6 C    3.980 --    25 C    1.455    27 C    1.396    54 H    0.961
                            29 C    0.102
    27   6 C    3.978 --    28 C    1.399    26 C    1.396    32 C    1.031
                            24 C    0.103
    28   6 C    3.980 --    29 C    1.450    27 C    1.399    55 H    0.963
                            25 C    0.104
    29   6 C    3.982 --    28 C    1.450    24 C    1.405    56 H    0.964
                            26 C    0.102
    30   8 O    1.837 --    23 S    1.538    31 O    0.105
    31   8 O    1.850 --    23 S    1.553    30 O    0.105
    32   6 C    3.982 --    27 C    1.031    58 H    0.977    57 H    0.975
                            59 H    0.957
    33   1 H    0.917 --     2 N    0.856
    34   1 H    0.990 --     4 C    0.958
    35   1 H    0.990 --     4 C    0.963
    36   1 H    0.977 --     5 C    0.937
    37   1 H    0.971 --     5 C    0.921
    38   1 H    0.995 --     7 C    0.963
    39   1 H    0.993 --     8 C    0.966
    40   1 H    0.992 --     9 C    0.967
    41   1 H    0.994 --    10 C    0.966
    42   1 H    0.996 --    11 C    0.967
    43   1 H    0.995 --    15 C    0.978
    44   1 H    0.996 --    15 C    0.984
    45   1 H    0.996 --    15 C    0.980
    46   1 H    0.988 --    16 C    0.949
    47   1 H    0.993 --    16 C    0.950
    48   1 H    0.965 --    18 C    0.946
    49   1 H    0.983 --    18 C    0.955
    50   1 H    0.964 --    20 C    0.945
    51   1 H    0.984 --    20 C    0.954
    52   1 H    0.985 --    21 C    0.928
    53   1 H    0.993 --    25 C    0.962
    54   1 H    0.991 --    26 C    0.961
    55   1 H    0.993 --    28 C    0.963
    56   1 H    0.997 --    29 C    0.964
    57   1 H    0.996 --    32 C    0.975
    58   1 H    0.995 --    32 C    0.977
    59   1 H    0.991 --    32 C    0.957
 ---------------------------------------------------------------------------

Topologies differ in total number of bonds
Writing topology from bond orders to xtbtopo.mol

molecular dipole:
                 x           y           z       tot (Debye)
 q only:       61.493      51.128      78.108
   full:       62.149      51.334      78.268     285.577
molecular quadrupole (traceless):
                xx          xy          yy          xz          yz          zz
 q only:     -649.248    4682.858   -2306.141    7198.360    6050.372    2955.389
  q+dip:     -588.738    4752.423   -2337.801    7289.289    6084.538    2926.539
   full:     -586.170    4752.828   -2338.113    7288.770    6083.201    2924.283


           -------------------------------------------------
          | TOTAL ENERGY              -95.284873611433 Eh   |
          | GRADIENT NORM               0.158242347762 Eh/α |
          | HOMO-LUMO GAP               0.347445997795 eV   |
Note: The following floating-point exceptions are signalling: IEEE_UNDERFLOW_FLAG IEEE_DENORMAL
normal termination of xtb
           -------------------------------------------------

------------------------------------------------------------------------
 * finished run on 2026/01/05 at 09:07:54.781     
------------------------------------------------------------------------
 total:
 * wall-time:     0 d,  0 h,  0 min,  0.252 sec
 *  cpu-time:     0 d,  0 h,  0 min,  3.784 sec
 * ratio c/w:    15.012 speedup
 SCF:
 * wall-time:     0 d,  0 h,  0 min,  0.225 sec
 *  cpu-time:     0 d,  0 h,  0 min,  3.397 sec
 * ratio c/w:    15.074 speedup

