      -----------------------------------------------------------      
     |                   =====================                   |     
     |                           x T B                           |     
     |                   =====================                   |     
     |                         S. Grimme                         |     
     |          Mulliken Center for Theoretical Chemistry        |     
     |                    University of Bonn                     |     
      -----------------------------------------------------------      

   * xtb version 6.7.1 (edcfbbe) compiled by 'conda@c0858423619e' on 2025-09-04

   xtb is free software: you can redistribute it and/or modify it under
   the terms of the GNU Lesser General Public License as published by
   the Free Software Foundation, either version 3 of the License, or
   (at your option) any later version.
   
   xtb is distributed in the hope that it will be useful,
   but WITHOUT ANY WARRANTY; without even the implied warranty of
   MERCHANTABILITY or FITNESS FOR A PARTICULAR PURPOSE.  See the
   GNU Lesser General Public License for more details.
   
   Cite this work as:
   * C. Bannwarth, E. Caldeweyher, S. Ehlert, A. Hansen, P. Pracht,
     J. Seibert, S. Spicher, S. Grimme, WIREs Comput. Mol. Sci., 2020, 11,
     e01493. DOI: 10.1002/wcms.1493
   
   for GFN2-xTB:
   * C. Bannwarth, S. Ehlert and S. Grimme., J. Chem. Theory Comput., 2019,
     15, 1652-1671. DOI: 10.1021/acs.jctc.8b01176
   for GFN1-xTB:
   * S. Grimme, C. Bannwarth, P. Shushkov, J. Chem. Theory Comput., 2017,
     13, 1989-2009. DOI: 10.1021/acs.jctc.7b00118
   for GFN0-xTB:
   * P. Pracht, E. Caldeweyher, S. Ehlert, S. Grimme, ChemRxiv, 2019, preprint.
     DOI: 10.26434/chemrxiv.8326202.v1
   for GFN-FF:
   * S. Spicher and S. Grimme, Angew. Chem. Int. Ed., 2020, 59, 15665-15673.
     DOI: 10.1002/anie.202004239
   
   for ALPB and GBSA implicit solvation:
   * S. Ehlert, M. Stahn, S. Spicher, S. Grimme, J. Chem. Theory Comput.,
     2021, 17, 4250-4261. DOI: 10.1021/acs.jctc.1c00471
   
   for ddCOSMO and CPCM-X implicit solvation:
   * M. Stahn, S. Ehlert, S. Grimme, J. Phys. Chem. A,
     2023, XX, XXXX-XXXX. DOI: 10.1021/acs.jpca.3c04382
   
   for DFT-D4:
   * E. Caldeweyher, C. Bannwarth and S. Grimme, J. Chem. Phys., 2017,
     147, 034112. DOI: 10.1063/1.4993215
   * E. Caldeweyher, S. Ehlert, A. Hansen, H. Neugebauer, S. Spicher,
     C. Bannwarth and S. Grimme, J. Chem. Phys., 2019, 150, 154122.
     DOI: 10.1063/1.5090222
   * E. Caldeweyher, J.-M. Mewes, S. Ehlert and S. Grimme, Phys. Chem. Chem. Phys.
     2020, 22, 8499-8512. DOI: 10.1039/D0CP00502A
   
   for sTDA-xTB:
   * S. Grimme and C. Bannwarth, J. Chem. Phys., 2016, 145, 054103.
     DOI: 10.1063/1.4959605
   
   in the mass-spec context:
   * V. Asgeirsson, C. Bauer and S. Grimme, Chem. Sci., 2017, 8, 4879.
     DOI: 10.1039/c7sc00601b
   * J. Koopman and S. Grimme, ACS Omega 2019, 4, 12, 15120-15133.
     DOI: 10.1021/acsomega.9b02011
   
   for metadynamics refer to:
   * S. Grimme, J. Chem. Theory Comput., 2019, 155, 2847-2862
     DOI: 10.1021/acs.jctc.9b00143
   
   for SPH calculations refer to:
   * S. Spicher and S. Grimme, J. Chem. Theory Comput., 2021, 17, 1701-1714
     DOI: 10.1021/acs.jctc.0c01306
   
   for ONIOM refer to:
   * C. Plett, A. Katbashev, S. Ehlert, S. Grimme, M. Bursch,
     Phys. Chem. Chem. Phys., 2023, 25, 17860-17868. DOI: 10.1039/D3CP02178E
   
   for DIPRO refer to:
   * J. Kohn, N. Gildemeister, S. Grimme, D. Fazzi, A. Hansen,
     J. Chem. Phys., 2023, just accepted.
   
   for PTB refer to:
   * S. Grimme, M. Mueller, A. Hansen, J. Chem. Phys., 2023, 158, 124111.
     DOI: 10.1063/5.0137838
   
   with help from (in alphabetical order)
   P. Atkinson, C. Bannwarth, F. Bohle, G. Brandenburg, E. Caldeweyher
   M. Checinski, S. Dohm, S. Ehlert, S. Ehrlich, I. Gerasimov, C. Hölzer
   A. Katbashev, J. Kohn, J. Koopman, C. Lavigne, S. Lehtola, F. März, M. Müller,
   F. Musil, H. Neugebauer, J. Pisarek, C. Plett, P. Pracht, F. Pultar,
   J. Seibert, P. Shushkov, S. Spicher, M. Stahn, M. Steiner, T. Strunk,
   J. Stückrath, T. Rose, and J. Unsleber
   
 * started run on 2026/01/05 at 09:06:13.296     
   ID    Z sym.   atoms
    1    7 N      1, 22, 42, 54, 74, 86, 91, 106, 122, 141, 151, 165, 186,
                  194, 197, 203, 222, 241, 260
    2    1 H      2, 4, 6, 7, 10, 12, 15, 17, 19, 23, 25, 27, 28, 31, 33, 35,
                  37, 39, 43, 45, 47, 48, 55, 57, 59, 60, 63, 65, 67, 69, 71,
                  75, 77, 79, 80, 82, 83, 87, 88, 92, 94, 96, 97, 99, 100,
                  107, 109, 111, 113-115, 117-119, 123, 125, 127, 129-131,
                  133, 134, 136-138, 142, 144, 146, 147, 150, 152, 155, 157,
                  159, 161, 166, 168, 170, 171, 174, 176, 179, 181, 183, 187,
                  189, 191, 192, 196, 198, 200, 204, 206, 208, 210-212, 214,
                  215, 217-219, 223, 225, 227, 229-231, 233, 234, 236-238,
                  242, 244, 246, 247, 249, 251-253, 255-257, 261, 263, 265,
                  266, 269, 271, 273, 275, 277, 280-299
    3    6 C      3, 5, 8, 9, 11, 13, 16, 18, 20, 24, 26, 29, 30, 32, 34, 36,
                  38, 40, 44, 46, 49, 52, 56, 58, 61, 62, 64, 66, 68, 70, 72,
                  76, 78, 81, 84, 89, 93, 95, 98, 101, 104, 108, 110, 112,
                  116, 120, 124, 126, 128, 132, 135, 139, 143, 145, 148, 149,
                  153, 154, 156, 158, 160, 162, 163, 167, 169, 172, 173, 175,
                  177, 180, 182, 184, 188, 190, 193, 195, 199, 201, 205, 207,
                  209, 213, 216, 220, 224, 226, 228, 232, 235, 239, 243, 245,
                  248, 250, 254, 258, 262, 264, 267, 268, 270, 272, 274, 276,
                  278
    4    8 O      14, 21, 41, 50, 51, 53, 73, 85, 90, 102, 103, 105, 121,
                  140, 164, 178, 185, 202, 221, 240, 259, 279

           -------------------------------------------------
          |                Calculation Setup                |
           -------------------------------------------------

          program call               : xtb /home/antonio_mesquita/Documentos/gmx_ISA_project/testes_arquivos_primeiros/gmx_ISA_testes/testes_qm_xtb/QM_analysis/QM_FRAMES_CAPPED/frame_0ps/residues_pocket_capped_0ps.xyz --gfn 2 --alpb water --chrg -2 --etemp 1500 --cycles 1000
          coordinate file            : /home/antonio_mesquita/Documentos/gmx_ISA_project/testes_arquivos_primeiros/gmx_ISA_testes/testes_qm_xtb/QM_analysis/QM_FRAMES_CAPPED/frame_0ps/residues_pocket_capped_0ps.xyz
          omp threads                :                    16


molecular fragmentation (1/2 indicates fragments):
111111111111111111111222222222222222222222222222222222222222222222222222
222222222222222222222222222222222222222222222222222222222222222222222222
222222222222222222222222222222222222222222222222222222222222222222222222
222222222222222222222222222222222222222222222222222222222222222112222222
22222222222
# atoms in fragment 1/2:    23   276
 fragment masses (1/2) :      165.19     1868.27
CMA distance (Bohr)    :  16.317
constraining FC (au)   :  0.0500

           -------------------------------------------------
          |                 G F N 2 - x T B                 |
           -------------------------------------------------

        Reference                      10.1021/acs.jctc.8b01176
      * Hamiltonian:
        H0-scaling (s, p, d)           1.850000    2.230000    2.230000
        zeta-weighting                 0.500000
      * Dispersion:
        s8                             2.700000
        a1                             0.520000
        a2                             5.000000
        s9                             5.000000
      * Repulsion:
        kExp                           1.500000    1.000000
        rExp                           1.000000
      * Coulomb:
        alpha                          2.000000
        third order                    shell-resolved
        anisotropic                    true
        a3                             3.000000
        a5                             4.000000
        cn-shift                       1.200000
        cn-exp                         4.000000
        max-rad                        5.000000

      * Solvation model:               ALPB
        Solvent                        water
        Parameter file                 internal GFN2-xTB/ALPB
        Dielectric constant                8.0200E+01
        Reference state                gsolv [1 M gas/solution]
        Free energy shift                  1.0808E-03 Eh       6.7819E-01 kcal/mol
        Temperature                        2.9815E+02 K
        Density                            1.0000E+00 kg/L
        Solvent mass                       1.8000E+01 g/mol
        Interaction kernel             P16
        Born radius scaling (c1)           1.4744E+00
        Born radii integrator          GBOBC
        Born offset                        0.0000E+00 a0       0.0000E+00 AA
        H-bond correction              true
        Ion screening                  false
        Surface tension                    1.0000E-05 Eh       1.5569E+01 dyn/cm
        Grid points                               230 per atom

          ...................................................
          :                      SETUP                      :
          :.................................................:
          :  # basis functions                 737          :
          :  # atomic orbitals                 737          :
          :  # shells                          445          :
          :  # electrons                       802          :
          :  max. iterations                   250          :
          :  Hamiltonian                  GFN2-xTB          :
          :  restarted?                      false          :
          :  GBSA solvation                   true          :
          :  PC potential                    false          :
          :  electronic temp.         1500.0000000     K    :
          :  accuracy                    1.0000000          :
          :  -> integral cutoff          0.2500000E+02      :
          :  -> integral neglect         0.1000000E-07      :
          :  -> SCF convergence          0.1000000E-05 Eh   :
          :  -> wf. convergence          0.1000000E-03 e    :
          :  Broyden damping             0.4000000          :
          :  net charge                         -2          :
          :  unpaired electrons                  0          :
          ...................................................

 iter      E             dE          RMSdq      gap      omega  full diag
   1   -452.8899824 -0.452890E+03  0.433E+00    1.56       0.0  T
   2   -453.7948514 -0.904869E+00  0.223E+00    1.04       1.0  T
   3   -453.8239517 -0.291003E-01  0.123E+00    1.64       1.0  T
   4   -453.8781839 -0.542322E-01  0.277E-01    1.12       1.0  T
   5   -453.8897938 -0.116098E-01  0.108E-01    1.26       1.0  T
   6   -453.8903814 -0.587667E-03  0.624E-02    1.22       1.0  T
   7   -453.8906323 -0.250844E-03  0.250E-02    1.19       1.0  T
   8   -453.8906676 -0.353027E-04  0.105E-02    1.20       1.0  T
   9   -453.8906749 -0.729602E-05  0.589E-03    1.19       1.0  T
  10   -453.8906774 -0.251594E-05  0.301E-03    1.19       1.9  T
  11   -453.8906781 -0.712155E-06  0.142E-03    1.19       4.1  T
  12   -453.8906783 -0.176786E-06  0.703E-04    1.19       8.2  T
  13   -453.8906783 -0.375324E-07  0.354E-04    1.19      16.4  T

   *** convergence criteria satisfied after 13 iterations ***

         #    Occupation            Energy/Eh            Energy/eV
      -------------------------------------------------------------
         1        2.0000           -0.7339785             -19.9726
       ...           ...                  ...                  ...
       395        1.9955           -0.3430591              -9.3351
       396        1.9951           -0.3426021              -9.3227
       397        1.9933           -0.3411014              -9.2818
       398        1.9933           -0.3411010              -9.2818
       399        1.9920           -0.3402915              -9.2598
       400        1.9899           -0.3391428              -9.2285
       401        1.9810           -0.3361461              -9.1470 (HOMO)
       402        0.0209           -0.2924401              -7.9577 (LUMO)
       403        0.0119           -0.2897324              -7.8840
       404        0.0116           -0.2896328              -7.8813
       405        0.0078           -0.2877423              -7.8299
       406        0.0038           -0.2843575              -7.7378
       ...           ...                  ...                  ...
       737                          0.6853842              18.6503
      -------------------------------------------------------------
                  HL-Gap            0.0437060 Eh            1.1893 eV
             Fermi-level           -0.3140629 Eh           -8.5461 eV

 SCC (total)                   0 d,  0 h,  0 min,  2.691 sec
 SCC setup                      ...        0 min,  0.018 sec (  0.673%)
 Dispersion                     ...        0 min,  0.033 sec (  1.216%)
 classical contributions        ...        0 min,  0.004 sec (  0.136%)
 integral evaluation            ...        0 min,  0.059 sec (  2.177%)
 iterations                     ...        0 min,  2.266 sec ( 84.225%)
 molecular gradient             ...        0 min,  0.302 sec ( 11.242%)
 printout                       ...        0 min,  0.009 sec (  0.330%)

         :::::::::::::::::::::::::::::::::::::::::::::::::::::
         ::                     SUMMARY                     ::
         :::::::::::::::::::::::::::::::::::::::::::::::::::::
         :: total energy            -448.114326564568 Eh    ::
         :: total w/o Gsasa/hb      -448.086715471569 Eh    ::
         :: gradient norm              0.334648006938 Eh/a0 ::
         :: HOMO-LUMO gap              1.189300797116 eV    ::
         ::.................................................::
         :: SCC energy              -453.871595912500 Eh    ::
         :: -> isotropic ES            1.304842684233 Eh    ::
         :: -> anisotropic ES          0.046225119252 Eh    ::
         :: -> anisotropic XC          0.198527805464 Eh    ::
         :: -> dispersion             -0.346398101805 Eh    ::
         :: -> Gsolv                  -0.401767144742 Eh    ::
         ::    -> Gelec               -0.374156051742 Eh    ::
         ::    -> Gsasa                0.019773098473 Eh    ::
         ::    -> Ghb                 -0.048464951171 Eh    ::
         ::    -> Gshift               0.001080759698 Eh    ::
         :: repulsion energy           5.757269347931 Eh    ::
         :: add. restraining           0.000000000000 Eh    ::
         :: total charge              -1.999999999999 e     ::
         :::::::::::::::::::::::::::::::::::::::::::::::::::::

           -------------------------------------------------
          |                Property Printout                |
           -------------------------------------------------

    * Orbital Energies and Occupations

         #    Occupation            Energy/Eh            Energy/eV
      -------------------------------------------------------------
         1        2.0000           -0.7339785             -19.9726
       ...           ...                  ...                  ...
       389        2.0000           -0.3678578             -10.0099
       390        1.9999           -0.3593509              -9.7784
       391        1.9996           -0.3542919              -9.6408
       392        1.9996           -0.3541302              -9.6364
       393        1.9984           -0.3480266              -9.4703
       394        1.9976           -0.3460029              -9.4152
       395        1.9955           -0.3430591              -9.3351
       396        1.9951           -0.3426021              -9.3227
       397        1.9933           -0.3411014              -9.2818
       398        1.9933           -0.3411010              -9.2818
       399        1.9920           -0.3402915              -9.2598
       400        1.9899           -0.3391428              -9.2285
       401        1.9810           -0.3361461              -9.1470 (HOMO)
       402        0.0209           -0.2924401              -7.9577 (LUMO)
       403        0.0119           -0.2897324              -7.8840
       404        0.0116           -0.2896328              -7.8813
       405        0.0078           -0.2877423              -7.8299
       406        0.0038           -0.2843575              -7.7378
       407        0.0033           -0.2836002              -7.7172
       408        0.0027           -0.2826340              -7.6909
       409        0.0011           -0.2783321              -7.5738
       410        0.0010           -0.2779880              -7.5644
       411        0.0009           -0.2773643              -7.5475
       412                         -0.2287036              -6.2233
       ...                                ...                  ...
       737                          0.6853842              18.6503
      -------------------------------------------------------------
                  HL-Gap            0.0437060 Eh            1.1893 eV
             Fermi-level           -0.3140629 Eh           -8.5461 eV

     #   Z          covCN         q      C6AA      α(0)
     1   7 N        2.635    -0.362    29.327     8.043
     2   1 H        0.860     0.151     1.394     1.849
     3   6 C        3.785     0.045    19.833     6.343
     4   1 H        0.924     0.077     2.006     2.215
     5   6 C        3.816    -0.076    21.947     6.668
     6   1 H        0.925     0.077     2.006     2.215
     7   1 H        0.925     0.059     2.216     2.328
     8   6 C        2.970     0.000    28.014     8.682
     9   6 C        2.909    -0.046    29.152     8.853
    10   1 H        0.926     0.034     2.527     2.486
    11   6 C        2.912    -0.071    29.761     8.946
    12   1 H        0.926     0.015     2.811     2.622
    13   6 C        2.834     0.138    24.976     8.190
    14   8 O        1.658    -0.457    21.986     6.330
    15   1 H        0.805     0.341     0.609     1.226
    16   6 C        2.912    -0.063    29.557     8.915
    17   1 H        0.925     0.037     2.493     2.469
    18   6 C        2.906    -0.042    29.043     8.837
    19   1 H        0.926     0.058     2.222     2.331
    20   6 C        2.761     0.211    23.532     7.944
    21   8 O        0.856    -0.395    21.588     6.229
    22   7 N        2.632    -0.377    29.736     8.099
    23   1 H        0.861     0.159     1.343     1.815
    24   6 C        3.785     0.035    19.999     6.370
    25   1 H        0.924     0.065     2.137     2.286
    26   6 C        3.808    -0.073    21.897     6.661
    27   1 H        0.925     0.077     2.011     2.218
    28   1 H        0.924     0.053     2.282     2.363
    29   6 C        2.950     0.003    27.948     8.671
    30   6 C        2.938    -0.041    29.017     8.835
    31   1 H        0.925     0.046     2.376     2.411
    32   6 C        2.901    -0.038    28.940     8.821
    33   1 H        0.926     0.060     2.196     2.317
    34   6 C        2.931    -0.032    28.796     8.800
    35   1 H        0.925     0.040     2.450     2.448
    36   6 C        2.899    -0.034    28.841     8.805
    37   1 H        0.925     0.023     2.691     2.565
    38   6 C        2.942    -0.034    28.840     8.808
    39   1 H        0.925    -0.000     3.060     2.736
    40   6 C        2.752     0.264    22.538     7.774
    41   8 O        0.862    -0.541    24.716     6.666
    42   7 N        2.687    -0.165    24.578     7.363
    43   1 H        0.860     0.209     1.060     1.613
    44   6 C        3.794     0.043    19.851     6.345
    45   1 H        0.925     0.093     1.849     2.126
    46   6 C        3.805    -0.077    21.964     6.672
    47   1 H        0.924     0.038     2.477     2.461
    48   1 H        0.924     0.055     2.265     2.353
    49   6 C        2.691     0.366    20.798     7.464
    50   8 O        0.857    -0.648    27.326     7.009
    51   8 O        0.857    -0.638    27.062     6.975
    52   6 C        2.761     0.211    23.535     7.944
    53   8 O        0.856    -0.368    21.045     6.150
    54   7 N        2.638    -0.367    29.473     8.063
    55   1 H        0.860     0.173     1.253     1.753
    56   6 C        3.784     0.044    19.861     6.348
    57   1 H        0.924     0.053     2.281     2.362
    58   6 C        3.821    -0.071    21.838     6.650
    59   1 H        0.925     0.051     2.313     2.378
    60   1 H        0.925     0.066     2.128     2.281
    61   6 C        2.978     0.001    28.000     8.680
    62   6 C        2.914    -0.042    29.040     8.837
    63   1 H        0.925     0.031     2.566     2.505
    64   6 C        2.910    -0.028    28.697     8.784
    65   1 H        0.925     0.030     2.580     2.512
    66   6 C        2.908    -0.035    28.864     8.809
    67   1 H        0.925     0.032     2.563     2.504
    68   6 C        2.930    -0.040    29.001     8.832
    69   1 H        0.926     0.035     2.519     2.482
    70   6 C        2.903    -0.050    29.235     8.866
    71   1 H        0.925     0.045     2.377     2.411
    72   6 C        2.758     0.208    23.590     7.954
    73   8 O        0.856    -0.372    21.130     6.163
    74   7 N        2.633    -0.375    29.674     8.090
    75   1 H        0.860     0.173     1.254     1.754
    76   6 C        3.787     0.025    20.170     6.397
    77   1 H        0.925     0.073     2.052     2.240
    78   6 C        3.807    -0.064    21.728     6.636
    79   1 H        0.925     0.054     2.270     2.356
    80   1 H        0.925     0.046     2.372     2.408
    81   6 C        3.803    -0.098    22.367     6.733
    82   1 H        0.924     0.070     2.086     2.258
    83   1 H        0.925     0.073     2.054     2.241
    84   6 C        2.742     0.289    22.093     7.696
    85   8 O        0.861    -0.537    24.611     6.651
    86   7 N        2.638    -0.292    27.542     7.794
    87   1 H        0.860     0.238     0.931     1.512
    88   1 H        0.860     0.256     0.861     1.453
    89   6 C        2.749     0.263    22.568     7.779
    90   8 O        0.860    -0.521    24.256     6.603
    91   7 N        2.691    -0.178    24.855     7.404
    92   1 H        0.860     0.201     1.099     1.642
    93   6 C        3.793     0.023    20.204     6.401
    94   1 H        0.924     0.088     1.898     2.154
    95   6 C        3.809    -0.057    21.585     6.613
    96   1 H        0.925     0.040     2.448     2.447
    97   1 H        0.925     0.069     2.094     2.263
    98   6 C        3.803    -0.084    22.102     6.693
    99   1 H        0.925     0.022     2.706     2.572
   100   1 H        0.925     0.020     2.736     2.586
   101   6 C        2.690     0.366    20.799     7.464
   102   8 O        0.857    -0.657    27.553     7.038
   103   8 O        0.856    -0.664    27.739     7.061
   104   6 C        2.747     0.279    22.284     7.730
   105   8 O        0.859    -0.505    23.904     6.555
   106   7 N        2.691    -0.156    24.380     7.333
   107   1 H        0.860     0.205     1.079     1.627
   108   6 C        3.797     0.022    20.211     6.401
   109   1 H        0.925     0.076     2.018     2.221
   110   6 C        3.854    -0.016    20.828     6.491
   111   1 H        0.924     0.056     2.252     2.347
   112   6 C        3.753    -0.102    22.510     6.765
   113   1 H        0.925     0.050     2.325     2.384
   114   1 H        0.924     0.020     2.729     2.584
   115   1 H        0.924     0.043     2.408     2.427
   116   6 C        3.756    -0.115    22.757     6.802
   117   1 H        0.925     0.045     2.377     2.411
   118   1 H        0.924     0.052     2.291     2.367
   119   1 H        0.926     0.043     2.414     2.430
   120   6 C        2.756     0.269    22.457     7.760
   121   8 O        0.861    -0.518    24.196     6.595
   122   7 N        2.692    -0.154    24.331     7.326
   123   1 H        0.860     0.213     1.042     1.599
   124   6 C        3.794     0.033    20.033     6.374
   125   1 H        0.925     0.095     1.833     2.117
   126   6 C        3.858    -0.020    20.901     6.502
   127   1 H        0.924     0.064     2.152     2.294
   128   6 C        3.753    -0.123    22.918     6.827
   129   1 H        0.925     0.044     2.401     2.423
   130   1 H        0.925     0.073     2.054     2.241
   131   1 H        0.924     0.044     2.392     2.419
   132   6 C        3.802    -0.068    21.797     6.647
   133   1 H        0.924     0.049     2.338     2.391
   134   1 H        0.925     0.045     2.385     2.415
   135   6 C        3.749    -0.114    22.754     6.803
   136   1 H        0.925     0.050     2.324     2.384
   137   1 H        0.924     0.048     2.346     2.395
   138   1 H        0.924     0.046     2.367     2.406
   139   6 C        2.764     0.206    23.626     7.960
   140   8 O        0.856    -0.377    21.223     6.176
   141   7 N        2.633    -0.360    29.295     8.039
   142   1 H        0.860     0.184     1.194     1.711
   143   6 C        3.784     0.031    20.064     6.380
   144   1 H        0.925     0.073     2.053     2.241
   145   6 C        3.811    -0.064    21.721     6.634
   146   1 H        0.925     0.040     2.448     2.447
   147   1 H        0.925     0.062     2.181     2.310
   148   6 C        3.012    -0.035    28.856     8.812
   149   6 C        2.993    -0.007    28.196     8.710
   150   1 H        0.926     0.076     2.020     2.222
   151   7 N        2.801    -0.100    23.187     7.152
   152   1 H        0.860     0.177     1.230     1.737
   153   6 C        2.994     0.045    26.989     8.522
   154   6 C        2.899    -0.054    29.330     8.880
   155   1 H        0.926     0.027     2.627     2.535
   156   6 C        2.933    -0.041    29.022     8.835
   157   1 H        0.925     0.010     2.893     2.660
   158   6 C        2.901    -0.052    29.303     8.876
   159   1 H        0.926     0.019     2.750     2.593
   160   6 C        2.920    -0.044    29.081     8.843
   161   1 H        0.926     0.011     2.878     2.653
   162   6 C        3.142    -0.024    28.337     8.710
   163   6 C        2.758     0.201    23.712     7.974
   164   8 O        0.856    -0.406    21.796     6.259
   165   7 N        2.633    -0.364    29.385     8.051
   166   1 H        0.860     0.171     1.269     1.765
   167   6 C        3.789     0.041    19.889     6.352
   168   1 H        0.924     0.080     1.979     2.200
   169   6 C        3.818    -0.064    21.716     6.632
   170   1 H        0.925     0.056     2.243     2.342
   171   1 H        0.924     0.057     2.235     2.338
   172   6 C        2.969     0.006    27.886     8.662
   173   6 C        2.913    -0.039    28.971     8.826
   174   1 H        0.925     0.054     2.265     2.353
   175   6 C        2.906    -0.058    29.448     8.898
   176   1 H        0.926     0.059     2.214     2.327
   177   6 C        2.839     0.137    25.005     8.195
   178   8 O        1.661    -0.459    22.033     6.337
   179   1 H        0.806     0.350     0.589     1.205
   180   6 C        2.909    -0.074    29.859     8.960
   181   1 H        0.926     0.039     2.465     2.455
   182   6 C        2.911    -0.044    29.103     8.846
   183   1 H        0.926     0.046     2.372     2.409
   184   6 C        2.764     0.197    23.797     7.989
   185   8 O        0.856    -0.411    21.909     6.276
   186   7 N        2.631    -0.362    29.350     8.046
   187   1 H        0.860     0.183     1.198     1.714
   188   6 C        3.795     0.044    19.845     6.344
   189   1 H        0.924     0.051     2.308     2.376
   190   6 C        3.808    -0.071    21.859     6.655
   191   1 H        0.925     0.047     2.354     2.399
   192   1 H        0.924     0.068     2.105     2.269
   193   6 C        3.141     0.040    26.870     8.483
   194   7 N        1.893    -0.321    29.165     8.006
   195   6 C        3.061     0.082    26.107     8.379
   196   1 H        0.925     0.048     2.350     2.397
   197   7 N        2.799    -0.105    23.289     7.167
   198   1 H        0.860     0.218     1.020     1.582
   199   6 C        2.990    -0.035    28.869     8.814
   200   1 H        0.925     0.042     2.425     2.435
   201   6 C        2.759     0.203    23.674     7.968
   202   8 O        0.859    -0.370    21.083     6.156
   203   7 N        2.632    -0.380    29.830     8.112
   204   1 H        0.860     0.165     1.305     1.790
   205   6 C        3.791     0.023    20.189     6.399
   206   1 H        0.924     0.039     2.466     2.456
   207   6 C        3.856    -0.028    21.027     6.522
   208   1 H        0.924     0.046     2.375     2.410
   209   6 C        3.754    -0.111    22.675     6.790
   210   1 H        0.925     0.039     2.467     2.456
   211   1 H        0.925     0.044     2.392     2.419
   212   1 H        0.924     0.041     2.441     2.443
   213   6 C        3.804    -0.056    21.579     6.613
   214   1 H        0.925     0.031     2.576     2.510
   215   1 H        0.924     0.037     2.484     2.464
   216   6 C        3.750    -0.101    22.489     6.763
   217   1 H        0.925     0.030     2.585     2.514
   218   1 H        0.924     0.029     2.602     2.523
   219   1 H        0.924     0.040     2.446     2.446
   220   6 C        2.755     0.269    22.458     7.760
   221   8 O        0.858    -0.524    24.317     6.612
   222   7 N        2.686    -0.162    24.507     7.352
   223   1 H        0.860     0.226     0.981     1.551
   224   6 C        3.801     0.027    20.112     6.385
   225   1 H        0.925     0.090     1.882     2.145
   226   6 C        3.854    -0.017    20.847     6.494
   227   1 H        0.924     0.063     2.167     2.302
   228   6 C        3.758    -0.121    22.869     6.818
   229   1 H        0.925     0.050     2.315     2.379
   230   1 H        0.925     0.057     2.229     2.335
   231   1 H        0.924     0.044     2.402     2.424
   232   6 C        3.808    -0.065    21.739     6.637
   233   1 H        0.924     0.024     2.672     2.556
   234   1 H        0.924     0.057     2.229     2.335
   235   6 C        3.749    -0.112    22.712     6.797
   236   1 H        0.925     0.036     2.499     2.472
   237   1 H        0.925     0.058     2.219     2.329
   238   1 H        0.924     0.026     2.641     2.541
   239   6 C        2.757     0.206    23.628     7.960
   240   8 O        0.856    -0.370    21.095     6.158
   241   7 N        2.636    -0.358    29.236     8.030
   242   1 H        0.860     0.169     1.281     1.773
   243   6 C        3.784     0.042    19.893     6.353
   244   1 H        0.924     0.059     2.211     2.325
   245   6 C        3.816    -0.063    21.701     6.630
   246   1 H        0.924     0.042     2.422     2.434
   247   1 H        0.924     0.040     2.455     2.450
   248   6 C        3.852    -0.014    20.786     6.484
   249   1 H        0.925     0.053     2.280     2.361
   250   6 C        3.761    -0.116    22.766     6.802
   251   1 H        0.924     0.037     2.490     2.468
   252   1 H        0.924     0.034     2.524     2.484
   253   1 H        0.925     0.045     2.388     2.416
   254   6 C        3.762    -0.119    22.819     6.809
   255   1 H        0.923     0.036     2.505     2.475
   256   1 H        0.925     0.047     2.363     2.404
   257   1 H        0.925     0.046     2.366     2.406
   258   6 C        2.766     0.205    23.646     7.964
   259   8 O        0.856    -0.384    21.371     6.198
   260   7 N        2.630    -0.352    29.068     8.007
   261   1 H        0.860     0.158     1.350     1.820
   262   6 C        3.783     0.046    19.815     6.341
   263   1 H        0.924     0.054     2.270     2.356
   264   6 C        3.812    -0.070    21.835     6.651
   265   1 H        0.925     0.044     2.399     2.422
   266   1 H        0.924     0.061     2.192     2.316
   267   6 C        2.957     0.014    27.705     8.633
   268   6 C        2.913    -0.043    29.058     8.839
   269   1 H        0.926     0.050     2.316     2.380
   270   6 C        2.908    -0.041    29.016     8.833
   271   1 H        0.926     0.055     2.256     2.349
   272   6 C        2.918    -0.037    28.916     8.818
   273   1 H        0.925     0.036     2.506     2.475
   274   6 C        2.902    -0.031    28.774     8.795
   275   1 H        0.926     0.022     2.706     2.572
   276   6 C        2.923    -0.039    28.973     8.827
   277   1 H        0.926     0.018     2.758     2.597
   278   6 C        2.760     0.202    23.695     7.971
   279   8 O        0.857    -0.377    21.235     6.178
   280   1 H        0.860     0.184     1.194     1.711
   281   1 H        0.923     0.058     2.220     2.330
   282   1 H        0.860     0.186     1.178     1.700
   283   1 H        0.923     0.050     2.323     2.383
   284   1 H        0.860     0.192     1.147     1.677
   285   1 H        0.923     0.047     2.357     2.401
   286   1 H        0.860     0.162     1.324     1.802
   287   1 H        0.923     0.067     2.120     2.277
   288   1 H        0.860     0.179     1.221     1.731
   289   1 H        0.923     0.049     2.327     2.385
   290   1 H        0.860     0.169     1.281     1.773
   291   1 H        0.923     0.066     2.133     2.284
   292   1 H        0.860     0.177     1.232     1.738
   293   1 H        0.923     0.062     2.170     2.304
   294   1 H        0.860     0.174     1.246     1.749
   295   1 H        0.923     0.074     2.038     2.233
   296   1 H        0.860     0.168     1.288     1.778
   297   1 H        0.923     0.038     2.479     2.462
   298   1 H        0.860     0.172     1.260     1.758
   299   1 H        0.923     0.063     2.169     2.303

 Mol. C6AA /au·bohr⁶  :     884644.405615
 Mol. C8AA /au·bohr⁸  :   20074305.046453
 Mol. α(0) /au        :       1436.253099


Wiberg/Mayer (AO) data.
largest (>0.10) Wiberg bond orders for each atom

 ---------------------------------------------------------------------------
     #   Z sym  total        # sym  WBO       # sym  WBO       # sym  WBO
 ---------------------------------------------------------------------------
     1   7 N    3.013 --     3 C    1.025     2 H    0.961   280 H    0.951
     2   1 H    0.977 --     1 N    0.961
     3   6 C    3.985 --     1 N    1.025    20 C    0.994     4 H    0.947
                             5 C    0.929
     4   1 H    0.993 --     3 C    0.947
     5   6 C    3.988 --     8 C    1.010     7 H    0.966     6 H    0.965
                             3 C    0.929
     6   1 H    0.994 --     5 C    0.965
     7   1 H    0.996 --     5 C    0.966
     8   6 C    3.986 --    18 C    1.413     9 C    1.395     5 C    1.010
     9   6 C    3.987 --    11 C    1.461     8 C    1.395    10 H    0.967
                            16 C    0.106
    10   1 H    0.999 --     9 C    0.967
    11   6 C    3.985 --     9 C    1.461    13 C    1.350    12 H    0.967
                            18 C    0.105
    12   1 H    0.999 --    11 C    0.967
    13   6 C    3.929 --    16 C    1.372    11 C    1.350    14 O    1.078
    14   8 O    2.084 --    13 C    1.078    15 H    0.815
    15   1 H    0.883 --    14 O    0.815
    16   6 C    3.984 --    18 C    1.441    13 C    1.372    17 H    0.965
                             9 C    0.106
    17   1 H    0.998 --    16 C    0.965
    18   6 C    3.986 --    16 C    1.441     8 C    1.413    19 H    0.966
                            11 C    0.105
    19   1 H    0.997 --    18 C    0.966
    20   6 C    3.880 --    21 O    1.877     3 C    0.994   281 H    0.939
    21   8 O    2.035 --    20 C    1.877
    22   7 N    3.019 --    24 C    1.024    23 H    0.958   282 H    0.950
    23   1 H    0.975 --    22 N    0.958
    24   6 C    3.978 --    22 N    1.024    26 C    0.961    25 H    0.956
                            40 C    0.941
    25   1 H    0.995 --    24 C    0.956
    26   6 C    3.988 --    29 C    1.010    27 H    0.962    24 C    0.961
                            28 H    0.956
    27   1 H    0.993 --    26 C    0.962
    28   1 H    0.997 --    26 C    0.956
    29   6 C    3.982 --    30 C    1.415    38 C    1.402    26 C    1.010
                            34 C    0.111
    30   6 C    3.986 --    32 C    1.437    29 C    1.415    31 H    0.966
                            36 C    0.110
    31   1 H    0.998 --    30 C    0.966
    32   6 C    3.988 --    34 C    1.443    30 C    1.437    33 H    0.965
                            38 C    0.111
    33   1 H    0.996 --    32 C    0.965
    34   6 C    3.986 --    32 C    1.443    36 C    1.428    35 H    0.967
                            29 C    0.111
    35   1 H    0.998 --    34 C    0.967
    36   6 C    3.990 --    38 C    1.452    34 C    1.428    37 H    0.971
                            30 C    0.110
    37   1 H    0.999 --    36 C    0.971
    38   6 C    3.991 --    36 C    1.452    29 C    1.402    39 H    0.964
                            32 C    0.111
    39   1 H    1.000 --    38 C    0.964
    40   6 C    3.925 --    41 O    1.608    42 N    1.291    24 C    0.941
    41   8 O    1.906 --    40 C    1.608    42 N    0.186
    42   7 N    3.468 --    40 C    1.291    44 C    0.992    43 H    0.918
                            41 O    0.186
    43   1 H    0.956 --    42 N    0.918
    44   6 C    3.972 --    52 C    0.993    42 N    0.992    46 C    0.945
                            45 H    0.934
    45   1 H    0.991 --    44 C    0.934
    46   6 C    3.984 --    47 H    0.973    48 H    0.947    44 C    0.945
                            49 C    0.941
    47   1 H    0.999 --    46 C    0.973
    48   1 H    0.997 --    46 C    0.947
    49   6 C    3.936 --    51 O    1.508    50 O    1.452    46 C    0.941
    50   8 O    1.796 --    49 C    1.452    51 O    0.213
    51   8 O    1.802 --    49 C    1.508    50 O    0.213
    52   6 C    3.877 --    53 O    1.877    44 C    0.993   283 H    0.941
    53   8 O    2.029 --    52 C    1.877
    54   7 N    3.019 --    56 C    1.030    55 H    0.956   284 H    0.947
    55   1 H    0.970 --    54 N    0.956
    56   6 C    3.988 --    54 N    1.030    72 C    0.974    57 H    0.962
                            58 C    0.932
    57   1 H    0.997 --    56 C    0.962
    58   6 C    3.990 --    61 C    1.006    59 H    0.971    60 H    0.960
                            56 C    0.932
    59   1 H    0.997 --    58 C    0.971
    60   1 H    0.995 --    58 C    0.960
    61   6 C    3.987 --    70 C    1.423    62 C    1.400    58 C    1.006
                            66 C    0.109
    62   6 C    3.990 --    64 C    1.456    61 C    1.400    63 H    0.968
                            68 C    0.111
    63   1 H    0.999 --    62 C    0.968
    64   6 C    3.990 --    62 C    1.456    66 C    1.424    65 H    0.970
                            70 C    0.111
    65   1 H    0.999 --    64 C    0.970
    66   6 C    3.988 --    68 C    1.448    64 C    1.424    67 H    0.971
                            61 C    0.109
    67   1 H    0.999 --    66 C    0.971
    68   6 C    3.990 --    66 C    1.448    70 C    1.430    69 H    0.972
                            62 C    0.111
    69   1 H    0.999 --    68 C    0.972
    70   6 C    3.988 --    68 C    1.430    61 C    1.423    71 H    0.969
                            64 C    0.111
    71   1 H    0.998 --    70 C    0.969
    72   6 C    3.882 --    73 O    1.897    56 C    0.974   285 H    0.939
    73   8 O    2.047 --    72 C    1.897
    74   7 N    3.029 --    76 C    1.021   286 H    0.959    75 H    0.958
    75   1 H    0.970 --    74 N    0.958
    76   6 C    3.980 --    74 N    1.021    78 C    0.980    89 C    0.945
                            77 H    0.932
    77   1 H    0.994 --    76 C    0.932
    78   6 C    3.991 --    81 C    1.000    76 C    0.980    80 H    0.975
                            79 H    0.967
    79   1 H    0.997 --    78 C    0.967
    80   1 H    0.998 --    78 C    0.975
    81   6 C    3.991 --    78 C    1.000    82 H    0.972    84 C    0.971
                            83 H    0.952
    82   1 H    0.995 --    81 C    0.972
    83   1 H    0.995 --    81 C    0.952
    84   6 C    3.943 --    85 O    1.614    86 N    1.331    81 C    0.971
    85   8 O    1.910 --    84 C    1.614    86 N    0.197
    86   7 N    3.398 --    84 C    1.331    87 H    0.920    88 H    0.913
                            85 O    0.197
    87   1 H    0.943 --    86 N    0.920
    88   1 H    0.934 --    86 N    0.913
    89   6 C    3.939 --    90 O    1.616    91 N    1.286    76 C    0.945
    90   8 O    1.922 --    89 C    1.616    91 N    0.186
    91   7 N    3.463 --    89 C    1.286    93 C    0.987    92 H    0.914
                            90 O    0.186
    92   1 H    0.959 --    91 N    0.914
    93   6 C    3.965 --    91 N    0.987    95 C    0.976   104 C    0.943
                            94 H    0.932
    94   1 H    0.992 --    93 C    0.932
    95   6 C    3.986 --    98 C    1.004    96 H    0.977    93 C    0.976
                            97 H    0.965
    96   1 H    0.998 --    95 C    0.977
    97   1 H    0.994 --    95 C    0.965
    98   6 C    3.995 --    95 C    1.004   100 H    0.977    99 H    0.965
                           101 C    0.933
    99   1 H    1.000 --    98 C    0.965
   100   1 H    1.000 --    98 C    0.977
   101   6 C    3.933 --   102 O    1.495   103 O    1.483    98 C    0.933
   102   8 O    1.785 --   101 C    1.495   103 O    0.215
   103   8 O    1.769 --   101 C    1.483   102 O    0.215
   104   6 C    3.951 --   105 O    1.627   106 N    1.303    93 C    0.943
   105   8 O    1.942 --   104 C    1.627   106 N    0.196
   106   7 N    3.474 --   104 C    1.303   108 C    0.982   107 H    0.914
                           105 O    0.196
   107   1 H    0.958 --   106 N    0.914
   108   6 C    3.965 --   106 N    0.982   110 C    0.959   109 H    0.946
                           120 C    0.946
   109   1 H    0.994 --   108 C    0.946
   110   6 C    3.991 --   112 C    1.007   116 C    1.007   111 H    0.961
                           108 C    0.959
   111   1 H    0.996 --   110 C    0.961
   112   6 C    3.994 --   110 C    1.007   114 H    0.985   115 H    0.984
                           113 H    0.984
   113   1 H    0.998 --   112 C    0.984
   114   1 H    1.000 --   112 C    0.985
   115   1 H    0.997 --   112 C    0.984
   116   6 C    3.992 --   110 C    1.007   119 H    0.984   118 H    0.980
                           117 H    0.979
   117   1 H    0.998 --   116 C    0.979
   118   1 H    0.997 --   116 C    0.980
   119   1 H    0.998 --   116 C    0.984
   120   6 C    3.952 --   121 O    1.613   122 N    1.316   108 C    0.946
   121   8 O    1.931 --   120 C    1.613   122 N    0.195
   122   7 N    3.477 --   120 C    1.316   124 C    0.973   123 H    0.912
                           121 O    0.195
   123   1 H    0.955 --   122 N    0.912
   124   6 C    3.958 --   139 C    0.988   122 N    0.973   126 C    0.944
                           125 H    0.937
   125   1 H    0.990 --   124 C    0.937
   126   6 C    3.978 --   128 C    1.001   132 C    0.994   127 H    0.962
                           124 C    0.944
   127   1 H    0.995 --   126 C    0.962
   128   6 C    3.989 --   126 C    1.001   129 H    0.985   131 H    0.984
                           130 H    0.977
   129   1 H    0.998 --   128 C    0.985
   130   1 H    0.993 --   128 C    0.977
   131   1 H    0.998 --   128 C    0.984
   132   6 C    3.994 --   135 C    1.016   126 C    0.994   133 H    0.972
                           134 H    0.971
   133   1 H    0.998 --   132 C    0.972
   134   1 H    0.998 --   132 C    0.971
   135   6 C    3.993 --   132 C    1.016   138 H    0.987   137 H    0.985
                           136 H    0.983
   136   1 H    0.997 --   135 C    0.983
   137   1 H    0.998 --   135 C    0.985
   138   1 H    0.998 --   135 C    0.987
   139   6 C    3.881 --   140 O    1.849   124 C    0.988   287 H    0.937
   140   8 O    2.047 --   139 C    1.849
   141   7 N    3.047 --   143 C    1.025   288 H    0.953   142 H    0.914
   142   1 H    0.966 --   141 N    0.914
   143   6 C    3.983 --   141 N    1.025   163 C    0.980   144 H    0.950
                           145 C    0.948
   144   1 H    0.993 --   143 C    0.950
   145   6 C    3.987 --   148 C    1.012   146 H    0.962   147 H    0.952
                           143 C    0.948
   146   1 H    0.998 --   145 C    0.962
   147   1 H    0.996 --   145 C    0.952
   148   6 C    3.974 --   149 C    1.603   162 C    1.177   145 C    1.012
   149   6 C    3.949 --   148 C    1.603   151 N    1.192   150 H    0.960
   150   1 H    0.993 --   149 C    0.960
   151   7 N    3.536 --   149 C    1.192   153 C    1.176   152 H    0.938
   152   1 H    0.968 --   151 N    0.938
   153   6 C    3.966 --   154 C    1.349   162 C    1.248   151 N    1.176
   154   6 C    3.987 --   156 C    1.472   153 C    1.349   155 H    0.968
                           160 C    0.115
   155   1 H    0.999 --   154 C    0.968
   156   6 C    3.990 --   154 C    1.472   158 C    1.392   157 H    0.972
   157   1 H    0.999 --   156 C    0.972
   158   6 C    3.985 --   160 C    1.475   156 C    1.392   159 H    0.970
   159   1 H    0.999 --   158 C    0.970
   160   6 C    3.986 --   158 C    1.475   162 C    1.352   161 H    0.968
                           154 C    0.115
   161   1 H    0.999 --   160 C    0.968
   162   6 C    3.980 --   160 C    1.352   153 C    1.248   148 C    1.177
   163   6 C    3.876 --   164 O    1.863   143 C    0.980   289 H    0.938
   164   8 O    2.021 --   163 C    1.863
   165   7 N    3.023 --   167 C    1.033   290 H    0.958   166 H    0.955
   166   1 H    0.971 --   165 N    0.955
   167   6 C    3.984 --   165 N    1.033   184 C    0.986   169 C    0.938
                           168 H    0.932
   168   1 H    0.993 --   167 C    0.932
   169   6 C    3.990 --   172 C    1.007   171 H    0.971   170 H    0.964
                           167 C    0.938
   170   1 H    0.996 --   169 C    0.964
   171   1 H    0.996 --   169 C    0.971
   172   6 C    3.986 --   173 C    1.416   182 C    1.391   169 C    1.007
   173   6 C    3.986 --   175 C    1.436   172 C    1.416   174 H    0.953
                           180 C    0.105
   174   1 H    0.997 --   173 C    0.953
   175   6 C    3.982 --   173 C    1.436   177 C    1.383   176 H    0.966
                           182 C    0.107
   176   1 H    0.996 --   175 C    0.966
   177   6 C    3.928 --   175 C    1.383   180 C    1.355   178 O    1.055
   178   8 O    2.059 --   177 C    1.055   179 H    0.857
   179   1 H    0.878 --   178 O    0.857
   180   6 C    3.985 --   182 C    1.465   177 C    1.355   181 H    0.969
                           173 C    0.105
   181   1 H    0.998 --   180 C    0.969
   182   6 C    3.989 --   180 C    1.465   172 C    1.391   183 H    0.968
                           175 C    0.107
   183   1 H    0.998 --   182 C    0.968
   184   6 C    3.871 --   185 O    1.863   167 C    0.986   291 H    0.936
   185   8 O    2.014 --   184 C    1.863
   186   7 N    3.021 --   188 C    1.022   292 H    0.952   187 H    0.925
   187   1 H    0.966 --   186 N    0.925
   188   6 C    3.985 --   186 N    1.022   201 C    0.976   189 H    0.964
                           190 C    0.939
   189   1 H    0.996 --   188 C    0.964
   190   6 C    3.990 --   193 C    1.013   191 H    0.969   192 H    0.956
                           188 C    0.939
   191   1 H    0.997 --   190 C    0.969
   192   1 H    0.995 --   190 C    0.956
   193   6 C    3.972 --   199 C    1.572   194 N    1.259   190 C    1.013
   194   7 N    2.991 --   195 C    1.532   193 C    1.259   197 N    0.108
   195   6 C    3.957 --   194 N    1.532   197 N    1.286   196 H    0.964
                           199 C    0.116
   196   1 H    0.997 --   195 C    0.964
   197   7 N    3.587 --   195 C    1.286   199 C    1.201   198 H    0.923
                           194 N    0.108
   198   1 H    0.953 --   197 N    0.923
   199   6 C    3.940 --   193 C    1.572   197 N    1.201   200 H    0.966
                           195 C    0.116
   200   1 H    0.998 --   199 C    0.966
   201   6 C    3.865 --   202 O    1.883   188 C    0.976   293 H    0.940
   202   8 O    2.052 --   201 C    1.883
   203   7 N    3.000 --   205 C    1.016   294 H    0.954   204 H    0.950
   204   1 H    0.973 --   203 N    0.950
   205   6 C    3.981 --   203 N    1.016   207 C    0.954   206 H    0.954
                           220 C    0.950
   206   1 H    0.997 --   205 C    0.954
   207   6 C    3.991 --   209 C    1.003   213 C    0.997   208 H    0.962
                           205 C    0.954
   208   1 H    0.997 --   207 C    0.962
   209   6 C    3.994 --   207 C    1.003   210 H    0.983   212 H    0.982
                           211 H    0.979
   210   1 H    0.998 --   209 C    0.983
   211   1 H    0.998 --   209 C    0.979
   212   1 H    0.998 --   209 C    0.982
   213   6 C    3.995 --   216 C    1.018   207 C    0.997   214 H    0.973
                           215 H    0.969
   214   1 H    0.999 --   213 C    0.973
   215   1 H    0.999 --   213 C    0.969
   216   6 C    3.992 --   213 C    1.018   218 H    0.986   219 H    0.985
                           217 H    0.981
   217   1 H    0.999 --   216 C    0.981
   218   1 H    0.999 --   216 C    0.986
   219   1 H    0.998 --   216 C    0.985
   220   6 C    3.945 --   221 O    1.612   222 N    1.307   205 C    0.950
   221   8 O    1.924 --   220 C    1.612   222 N    0.195
   222   7 N    3.483 --   220 C    1.307   224 C    0.975   223 H    0.899
                           221 O    0.195
   223   1 H    0.949 --   222 N    0.899
   224   6 C    3.959 --   222 N    0.975   239 C    0.974   226 C    0.949
                           225 H    0.947
   225   1 H    0.992 --   224 C    0.947
   226   6 C    3.985 --   228 C    1.004   232 C    0.996   227 H    0.959
                           224 C    0.949
   227   1 H    0.996 --   226 C    0.959
   228   6 C    3.989 --   226 C    1.004   229 H    0.983   231 H    0.982
                           230 H    0.973
   229   1 H    0.997 --   228 C    0.983
   230   1 H    0.996 --   228 C    0.973
   231   1 H    0.998 --   228 C    0.982
   232   6 C    3.994 --   235 C    1.014   226 C    0.996   234 H    0.972
                           233 H    0.970
   233   1 H    0.999 --   232 C    0.970
   234   1 H    0.997 --   232 C    0.972
   235   6 C    3.987 --   232 C    1.014   236 H    0.985   238 H    0.985
                           237 H    0.981
   236   1 H    0.999 --   235 C    0.985
   237   1 H    0.996 --   235 C    0.981
   238   1 H    0.999 --   235 C    0.985
   239   6 C    3.869 --   240 O    1.879   224 C    0.974   295 H    0.939
   240   8 O    2.056 --   239 C    1.879
   241   7 N    3.024 --   243 C    1.023   296 H    0.960   242 H    0.956
   242   1 H    0.972 --   241 N    0.956
   243   6 C    3.986 --   241 N    1.023   258 C    0.978   244 H    0.954
                           245 C    0.950
   244   1 H    0.996 --   243 C    0.954
   245   6 C    3.988 --   248 C    0.987   246 H    0.972   247 H    0.971
                           243 C    0.950
   246   1 H    0.998 --   245 C    0.972
   247   1 H    0.998 --   245 C    0.971
   248   6 C    3.993 --   254 C    1.010   250 C    1.006   245 C    0.987
                           249 H    0.966
   249   1 H    0.997 --   248 C    0.966
   250   6 C    3.991 --   248 C    1.006   251 H    0.985   252 H    0.985
                           253 H    0.972
   251   1 H    0.999 --   250 C    0.985
   252   1 H    0.999 --   250 C    0.985
   253   1 H    0.996 --   250 C    0.972
   254   6 C    3.994 --   248 C    1.010   255 H    0.985   257 H    0.980
                           256 H    0.978
   255   1 H    0.999 --   254 C    0.985
   256   1 H    0.997 --   254 C    0.978
   257   1 H    0.998 --   254 C    0.980
   258   6 C    3.881 --   259 O    1.886   243 C    0.978   297 H    0.937
   259   8 O    2.043 --   258 C    1.886
   260   7 N    3.033 --   262 C    1.032   261 H    0.962   298 H    0.954
   261   1 H    0.975 --   260 N    0.962
   262   6 C    3.986 --   260 N    1.032   278 C    0.973   263 H    0.961
                           264 C    0.932
   263   1 H    0.997 --   262 C    0.961
   264   6 C    3.992 --   267 C    1.007   265 H    0.968   266 H    0.966
                           262 C    0.932
   265   1 H    0.998 --   264 C    0.968
   266   1 H    0.996 --   264 C    0.966
   267   6 C    3.987 --   268 C    1.410   276 C    1.410   264 C    1.007
                           272 C    0.107
   268   6 C    3.989 --   270 C    1.440   267 C    1.410   269 H    0.969
                           274 C    0.112
   269   1 H    0.997 --   268 C    0.969
   270   6 C    3.988 --   268 C    1.440   272 C    1.436   271 H    0.968
Note: The following floating-point exceptions are signalling: IEEE_UNDERFLOW_FLAG IEEE_DENORMAL
normal termination of xtb
                           276 C    0.111
   271   1 H    0.997 --   270 C    0.968
   272   6 C    3.987 --   270 C    1.436   274 C    1.435   273 H    0.970
                           267 C    0.107
   273   1 H    0.998 --   272 C    0.970
   274   6 C    3.991 --   276 C    1.442   272 C    1.435   275 H    0.972
                           268 C    0.112
   275   1 H    0.999 --   274 C    0.972
   276   6 C    3.989 --   274 C    1.442   267 C    1.410   277 H    0.970
                           270 C    0.111
   277   1 H    1.000 --   276 C    0.970
   278   6 C    3.878 --   279 O    1.895   262 C    0.973   299 H    0.937
   279   8 O    2.040 --   278 C    1.895
   280   1 H    0.966 --     1 N    0.951
   281   1 H    0.997 --    20 C    0.939
   282   1 H    0.965 --    22 N    0.950
   283   1 H    0.997 --    52 C    0.941
   284   1 H    0.963 --    54 N    0.947
   285   1 H    0.998 --    72 C    0.939
   286   1 H    0.974 --    74 N    0.959
   287   1 H    0.995 --   139 C    0.937
   288   1 H    0.968 --   141 N    0.953
   289   1 H    0.997 --   163 C    0.938
   290   1 H    0.971 --   165 N    0.958
   291   1 H    0.995 --   184 C    0.936
   292   1 H    0.968 --   186 N    0.952
   293   1 H    0.996 --   201 C    0.940
   294   1 H    0.969 --   203 N    0.954
   295   1 H    0.994 --   239 C    0.939
   296   1 H    0.972 --   241 N    0.960
   297   1 H    0.998 --   258 C    0.937
   298   1 H    0.970 --   260 N    0.954
   299   1 H    0.996 --   278 C    0.937
 ---------------------------------------------------------------------------

Topologies differ in total number of bonds
Writing topology from bond orders to xtbtopo.mol

molecular dipole:
                 x           y           z       tot (Debye)
 q only:     -124.329    -124.464    -157.681
   full:     -124.015    -125.113    -156.387     598.741
molecular quadrupole (traceless):
                xx          xy          yy          xz          yz          zz
 q only:     2370.330  -11232.811    2006.276  -14795.314  -14818.987   -4376.606
  q+dip:     2347.843  -11286.483    1817.436  -14622.037  -14763.637   -4165.279
   full:     2353.538  -11287.850    1816.607  -14620.449  -14760.481   -4170.145


           -------------------------------------------------
          | TOTAL ENERGY             -448.114326564568 Eh   |
          | GRADIENT NORM               0.334648006938 Eh/α |
          | HOMO-LUMO GAP               1.189300797116 eV   |
           -------------------------------------------------

------------------------------------------------------------------------
 * finished run on 2026/01/05 at 09:06:16.099     
------------------------------------------------------------------------
 total:
 * wall-time:     0 d,  0 h,  0 min,  2.803 sec
 *  cpu-time:     0 d,  0 h,  0 min, 40.632 sec
 * ratio c/w:    14.495 speedup
 SCF:
 * wall-time:     0 d,  0 h,  0 min,  2.696 sec
 *  cpu-time:     0 d,  0 h,  0 min, 39.031 sec
 * ratio c/w:    14.477 speedup

