      -----------------------------------------------------------      
     |                   =====================                   |     
     |                           x T B                           |     
     |                   =====================                   |     
     |                         S. Grimme                         |     
     |          Mulliken Center for Theoretical Chemistry        |     
     |                    University of Bonn                     |     
      -----------------------------------------------------------      

   * xtb version 6.7.1 (edcfbbe) compiled by 'conda@c0858423619e' on 2025-09-04

   xtb is free software: you can redistribute it and/or modify it under
   the terms of the GNU Lesser General Public License as published by
   the Free Software Foundation, either version 3 of the License, or
   (at your option) any later version.
   
   xtb is distributed in the hope that it will be useful,
   but WITHOUT ANY WARRANTY; without even the implied warranty of
   MERCHANTABILITY or FITNESS FOR A PARTICULAR PURPOSE.  See the
   GNU Lesser General Public License for more details.
   
   Cite this work as:
   * C. Bannwarth, E. Caldeweyher, S. Ehlert, A. Hansen, P. Pracht,
     J. Seibert, S. Spicher, S. Grimme, WIREs Comput. Mol. Sci., 2020, 11,
     e01493. DOI: 10.1002/wcms.1493
   
   for GFN2-xTB:
   * C. Bannwarth, S. Ehlert and S. Grimme., J. Chem. Theory Comput., 2019,
     15, 1652-1671. DOI: 10.1021/acs.jctc.8b01176
   for GFN1-xTB:
   * S. Grimme, C. Bannwarth, P. Shushkov, J. Chem. Theory Comput., 2017,
     13, 1989-2009. DOI: 10.1021/acs.jctc.7b00118
   for GFN0-xTB:
   * P. Pracht, E. Caldeweyher, S. Ehlert, S. Grimme, ChemRxiv, 2019, preprint.
     DOI: 10.26434/chemrxiv.8326202.v1
   for GFN-FF:
   * S. Spicher and S. Grimme, Angew. Chem. Int. Ed., 2020, 59, 15665-15673.
     DOI: 10.1002/anie.202004239
   
   for ALPB and GBSA implicit solvation:
   * S. Ehlert, M. Stahn, S. Spicher, S. Grimme, J. Chem. Theory Comput.,
     2021, 17, 4250-4261. DOI: 10.1021/acs.jctc.1c00471
   
   for ddCOSMO and CPCM-X implicit solvation:
   * M. Stahn, S. Ehlert, S. Grimme, J. Phys. Chem. A,
     2023, XX, XXXX-XXXX. DOI: 10.1021/acs.jpca.3c04382
   
   for DFT-D4:
   * E. Caldeweyher, C. Bannwarth and S. Grimme, J. Chem. Phys., 2017,
     147, 034112. DOI: 10.1063/1.4993215
   * E. Caldeweyher, S. Ehlert, A. Hansen, H. Neugebauer, S. Spicher,
     C. Bannwarth and S. Grimme, J. Chem. Phys., 2019, 150, 154122.
     DOI: 10.1063/1.5090222
   * E. Caldeweyher, J.-M. Mewes, S. Ehlert and S. Grimme, Phys. Chem. Chem. Phys.
     2020, 22, 8499-8512. DOI: 10.1039/D0CP00502A
   
   for sTDA-xTB:
   * S. Grimme and C. Bannwarth, J. Chem. Phys., 2016, 145, 054103.
     DOI: 10.1063/1.4959605
   
   in the mass-spec context:
   * V. Asgeirsson, C. Bauer and S. Grimme, Chem. Sci., 2017, 8, 4879.
     DOI: 10.1039/c7sc00601b
   * J. Koopman and S. Grimme, ACS Omega 2019, 4, 12, 15120-15133.
     DOI: 10.1021/acsomega.9b02011
   
   for metadynamics refer to:
   * S. Grimme, J. Chem. Theory Comput., 2019, 155, 2847-2862
     DOI: 10.1021/acs.jctc.9b00143
   
   for SPH calculations refer to:
   * S. Spicher and S. Grimme, J. Chem. Theory Comput., 2021, 17, 1701-1714
     DOI: 10.1021/acs.jctc.0c01306
   
   for ONIOM refer to:
   * C. Plett, A. Katbashev, S. Ehlert, S. Grimme, M. Bursch,
     Phys. Chem. Chem. Phys., 2023, 25, 17860-17868. DOI: 10.1039/D3CP02178E
   
   for DIPRO refer to:
   * J. Kohn, N. Gildemeister, S. Grimme, D. Fazzi, A. Hansen,
     J. Chem. Phys., 2023, just accepted.
   
   for PTB refer to:
   * S. Grimme, M. Mueller, A. Hansen, J. Chem. Phys., 2023, 158, 124111.
     DOI: 10.1063/5.0137838
   
   with help from (in alphabetical order)
   P. Atkinson, C. Bannwarth, F. Bohle, G. Brandenburg, E. Caldeweyher
   M. Checinski, S. Dohm, S. Ehlert, S. Ehrlich, I. Gerasimov, C. Hölzer
   A. Katbashev, J. Kohn, J. Koopman, C. Lavigne, S. Lehtola, F. März, M. Müller,
   F. Musil, H. Neugebauer, J. Pisarek, C. Plett, P. Pracht, F. Pultar,
   J. Seibert, P. Shushkov, S. Spicher, M. Stahn, M. Steiner, T. Strunk,
   J. Stückrath, T. Rose, and J. Unsleber
   
 * started run on 2026/01/05 at 09:07:44.991     
   ID    Z sym.   atoms
    1    7 N      1, 21, 33, 46, 49, 52, 57, 73, 79, 99, 120, 128, 131, 137,
                  156
    2    1 H      2, 4, 6, 7, 10, 12, 14, 16, 18, 22, 24, 26, 27, 34, 36, 38,
                  39, 41, 42, 44, 45, 47, 50, 51, 53, 54, 58, 60, 62, 63, 65,
                  66, 68, 69, 71, 72, 74-76, 80, 82, 84, 85, 88, 90, 92, 94,
                  96, 100, 102, 104, 105, 108, 110, 113, 115, 117, 121, 123,
                  125, 126, 130, 132, 134, 138, 140, 142, 144-146, 148, 149,
                  151-153, 157, 159, 161, 163-165, 167, 168, 170-172, 175-188
    3    6 C      3, 5, 8, 9, 11, 13, 15, 17, 19, 23, 25, 28, 31, 35, 37, 40,
                  43, 48, 55, 59, 61, 64, 67, 70, 77, 81, 83, 86, 87, 89, 91,
                  93, 95, 97, 101, 103, 106, 107, 109, 111, 114, 116, 118,
                  122, 124, 127, 129, 133, 135, 139, 141, 143, 147, 150, 154,
                  158, 160, 162, 166, 169, 173
    4    8 O      20, 29, 30, 32, 56, 78, 98, 112, 119, 136, 155, 174

           -------------------------------------------------
          |                Calculation Setup                |
           -------------------------------------------------

          program call               : xtb /home/antonio_mesquita/Documentos/gmx_ISA_project/testes_arquivos_primeiros/gmx_ISA_testes/testes_qm_xtb/QM_analysis/QM_FRAMES_CAPPED/frame_4800ps/residues_pocket_capped_4800ps.xyz --gfn 2 --alpb water --chrg 1 --etemp 1500 --cycles 1000
          coordinate file            : /home/antonio_mesquita/Documentos/gmx_ISA_project/testes_arquivos_primeiros/gmx_ISA_testes/testes_qm_xtb/QM_analysis/QM_FRAMES_CAPPED/frame_4800ps/residues_pocket_capped_4800ps.xyz
          omp threads                :                    16


molecular fragmentation (1/2 indicates fragments):
111111111111111111111111111111112222222222222222222222222222222222222222
222222222222222222222222222222222222222222222222222222222222222222222222
22222222222222222222222222222211222222222222
# atoms in fragment 1/2:    34   154
 fragment masses (1/2) :      263.27      972.27
CMA distance (Bohr)    :  10.163
constraining FC (au)   :  0.0500

           -------------------------------------------------
          |                 G F N 2 - x T B                 |
           -------------------------------------------------

        Reference                      10.1021/acs.jctc.8b01176
      * Hamiltonian:
        H0-scaling (s, p, d)           1.850000    2.230000    2.230000
        zeta-weighting                 0.500000
      * Dispersion:
        s8                             2.700000
        a1                             0.520000
        a2                             5.000000
        s9                             5.000000
      * Repulsion:
        kExp                           1.500000    1.000000
        rExp                           1.000000
      * Coulomb:
        alpha                          2.000000
        third order                    shell-resolved
        anisotropic                    true
        a3                             3.000000
        a5                             4.000000
        cn-shift                       1.200000
        cn-exp                         4.000000
        max-rad                        5.000000

      * Solvation model:               ALPB
        Solvent                        water
        Parameter file                 internal GFN2-xTB/ALPB
        Dielectric constant                8.0200E+01
        Reference state                gsolv [1 M gas/solution]
        Free energy shift                  1.0808E-03 Eh       6.7819E-01 kcal/mol
        Temperature                        2.9815E+02 K
        Density                            1.0000E+00 kg/L
        Solvent mass                       1.8000E+01 g/mol
        Interaction kernel             P16
        Born radius scaling (c1)           1.4744E+00
        Born radii integrator          GBOBC
        Born offset                        0.0000E+00 a0       0.0000E+00 AA
        H-bond correction              true
        Ion screening                  false
        Surface tension                    1.0000E-05 Eh       1.5569E+01 dyn/cm
        Grid points                               230 per atom

          ...................................................
          :                      SETUP                      :
          :.................................................:
          :  # basis functions                 452          :
          :  # atomic orbitals                 452          :
          :  # shells                          276          :
          :  # electrons                       490          :
          :  max. iterations                   250          :
          :  Hamiltonian                  GFN2-xTB          :
          :  restarted?                      false          :
          :  GBSA solvation                   true          :
          :  PC potential                    false          :
          :  electronic temp.         1500.0000000     K    :
          :  accuracy                    1.0000000          :
          :  -> integral cutoff          0.2500000E+02      :
          :  -> integral neglect         0.1000000E-07      :
          :  -> SCF convergence          0.1000000E-05 Eh   :
          :  -> wf. convergence          0.1000000E-03 e    :
          :  Broyden damping             0.4000000          :
          :  net charge                          1          :
          :  unpaired electrons                  0          :
          ...................................................

 iter      E             dE          RMSdq      gap      omega  full diag
   1   -276.5423631 -0.276542E+03  0.435E+00    1.71       0.0  T
   2   -277.0702689 -0.527906E+00  0.226E+00    1.00       1.0  T
   3   -277.0885266 -0.182577E-01  0.124E+00    1.61       1.0  T
   4   -277.1236423 -0.351157E-01  0.286E-01    1.13       1.0  T
   5   -277.1302527 -0.661040E-02  0.116E-01    1.28       1.0  T
   6   -277.1308309 -0.578158E-03  0.612E-02    1.24       1.0  T
   7   -277.1309733 -0.142377E-03  0.270E-02    1.24       1.0  T
   8   -277.1309944 -0.211278E-04  0.852E-03    1.25       1.0  T
   9   -277.1309972 -0.283930E-05  0.446E-03    1.24       1.6  T
  10   -277.1309979 -0.669489E-06  0.200E-03    1.25       3.6  T
  11   -277.1309980 -0.143705E-06  0.902E-04    1.24       8.1  T
  12   -277.1309981 -0.363970E-07  0.383E-04    1.25      19.0  T

   *** convergence criteria satisfied after 12 iterations ***

         #    Occupation            Energy/Eh            Energy/eV
      -------------------------------------------------------------
         1        2.0000           -0.7375315             -20.0693
       ...           ...                  ...                  ...
       239        1.9987           -0.3509138              -9.5488
       240        1.9952           -0.3447943              -9.3823
       241        1.9944           -0.3440914              -9.3632
       242        1.9930           -0.3430326              -9.3344
       243        1.9924           -0.3426252              -9.3233
       244        1.9907           -0.3416676              -9.2972
       245        1.9883           -0.3405714              -9.2674 (HOMO)
       246        0.0221           -0.2948148              -8.0223 (LUMO)
       247        0.0156           -0.2931299              -7.9765
       248        0.0048           -0.2875088              -7.8235
       249        0.0028           -0.2849882              -7.7549
       250        0.0009           -0.2793176              -7.6006
       ...           ...                  ...                  ...
       452                          0.6369940              17.3335
      -------------------------------------------------------------
                  HL-Gap            0.0457566 Eh            1.2451 eV
             Fermi-level           -0.3161586 Eh           -8.6031 eV

 SCC (total)                   0 d,  0 h,  0 min,  1.026 sec
 SCC setup                      ...        0 min,  0.008 sec (  0.741%)
 Dispersion                     ...        0 min,  0.010 sec (  0.928%)
 classical contributions        ...        0 min,  0.001 sec (  0.097%)
 integral evaluation            ...        0 min,  0.031 sec (  3.038%)
 iterations                     ...        0 min,  0.818 sec ( 79.715%)
 molecular gradient             ...        0 min,  0.145 sec ( 14.145%)
 printout                       ...        0 min,  0.014 sec (  1.333%)

         :::::::::::::::::::::::::::::::::::::::::::::::::::::
         ::                     SUMMARY                     ::
         :::::::::::::::::::::::::::::::::::::::::::::::::::::
         :: total energy            -273.616541818280 Eh    ::
         :: total w/o Gsasa/hb      -273.572888872189 Eh    ::
         :: gradient norm              0.265031939777 Eh/a0 ::
         :: HOMO-LUMO gap              1.245099310526 eV    ::
         ::.................................................::
         :: SCC energy              -277.123790095885 Eh    ::
         :: -> isotropic ES            0.767399277157 Eh    ::
         :: -> anisotropic ES          0.006843213660 Eh    ::
         :: -> anisotropic XC          0.133861885048 Eh    ::
         :: -> dispersion             -0.183017882098 Eh    ::
         :: -> Gsolv                  -0.288180293073 Eh    ::
         ::    -> Gelec               -0.244527346981 Eh    ::
         ::    -> Gsasa                0.003054596406 Eh    ::
         ::    -> Ghb                 -0.047788302195 Eh    ::
         ::    -> Gshift               0.001080759698 Eh    ::
         :: repulsion energy           3.507248277604 Eh    ::
         :: add. restraining           0.000000000000 Eh    ::
         :: total charge               1.000000000000 e     ::
         :::::::::::::::::::::::::::::::::::::::::::::::::::::

           -------------------------------------------------
          |                Property Printout                |
           -------------------------------------------------

    * Orbital Energies and Occupations

         #    Occupation            Energy/Eh            Energy/eV
      -------------------------------------------------------------
         1        2.0000           -0.7375315             -20.0693
       ...           ...                  ...                  ...
       233        2.0000           -0.3914422             -10.6517
       234        2.0000           -0.3876713             -10.5491
       235        2.0000           -0.3842851             -10.4569
       236        2.0000           -0.3810403             -10.3686
       237        2.0000           -0.3757447             -10.2245
       238        2.0000           -0.3695745             -10.0566
       239        1.9987           -0.3509138              -9.5488
       240        1.9952           -0.3447943              -9.3823
       241        1.9944           -0.3440914              -9.3632
       242        1.9930           -0.3430326              -9.3344
       243        1.9924           -0.3426252              -9.3233
       244        1.9907           -0.3416676              -9.2972
       245        1.9883           -0.3405714              -9.2674 (HOMO)
       246        0.0221           -0.2948148              -8.0223 (LUMO)
       247        0.0156           -0.2931299              -7.9765
       248        0.0048           -0.2875088              -7.8235
       249        0.0028           -0.2849882              -7.7549
       250        0.0009           -0.2793176              -7.6006
       251        0.0005           -0.2770582              -7.5391
       252        0.0005           -0.2768647              -7.5339
       253                         -0.2280122              -6.2045
       254                         -0.2265287              -6.1642
       255                         -0.2241322              -6.0989
       256                         -0.2219050              -6.0383
       ...                                ...                  ...
       452                          0.6369940              17.3335
      -------------------------------------------------------------
                  HL-Gap            0.0457566 Eh            1.2451 eV
             Fermi-level           -0.3161586 Eh           -8.6031 eV

     #   Z          covCN         q      C6AA      α(0)
     1   7 N        2.636    -0.382    29.863     8.116
     2   1 H        0.860     0.153     1.381     1.841
     3   6 C        3.785     0.035    19.996     6.370
     4   1 H        0.924     0.060     2.203     2.321
     5   6 C        3.816    -0.069    21.809     6.647
     6   1 H        0.924     0.054     2.266     2.354
     7   1 H        0.925     0.038     2.471     2.458
     8   6 C        2.956     0.010    27.784     8.646
     9   6 C        2.918    -0.042    29.034     8.836
    10   1 H        0.925     0.044     2.395     2.420
    11   6 C        2.911    -0.037    28.919     8.818
    12   1 H        0.925     0.042     2.418     2.432
    13   6 C        2.909    -0.037    28.928     8.819
    14   1 H        0.926     0.039     2.466     2.456
    15   6 C        2.912    -0.036    28.903     8.816
    16   1 H        0.926     0.031     2.567     2.506
    17   6 C        2.918    -0.040    28.983     8.828
    18   1 H        0.926     0.017     2.774     2.604
    19   6 C        2.750     0.274    22.372     7.745
    20   8 O        0.860    -0.521    24.244     6.602
    21   7 N        2.686    -0.160    24.462     7.346
    22   1 H        0.860     0.209     1.063     1.615
    23   6 C        3.792     0.044    19.843     6.344
    24   1 H        0.924     0.088     1.901     2.156
    25   6 C        3.805    -0.083    22.082     6.690
    26   1 H        0.925     0.039     2.468     2.457
    27   1 H        0.923     0.055     2.259     2.351
    28   6 C        2.689     0.358    20.927     7.487
    29   8 O        0.857    -0.612    26.428     6.892
    30   8 O        0.857    -0.642    27.167     6.988
    31   6 C        2.761     0.209    23.576     7.951
    32   8 O        0.856    -0.370    21.087     6.157
    33   7 N        2.630    -0.378    29.781     8.105
    34   1 H        0.860     0.160     1.337     1.812
    35   6 C        3.786     0.033    20.026     6.374
    36   1 H        0.924     0.077     2.007     2.215
    37   6 C        3.810    -0.069    21.809     6.648
    38   1 H        0.925     0.068     2.108     2.270
    39   1 H        0.924     0.048     2.341     2.393
    40   6 C        3.810    -0.084    22.090     6.690
    41   1 H        0.925     0.071     2.078     2.254
    42   1 H        0.925     0.069     2.099     2.266
    43   6 C        3.740    -0.026    21.116     6.557
    44   1 H        0.925     0.081     1.964     2.191
    45   1 H        0.925     0.103     1.759     2.074
    46   7 N        2.696    -0.143    24.086     7.289
    47   1 H        0.860     0.236     0.941     1.520
    48   6 C        2.736     0.239    22.999     7.852
    49   7 N        2.650    -0.265    26.875     7.699
    50   1 H        0.860     0.244     0.907     1.492
    51   1 H        0.860     0.240     0.922     1.504
    52   7 N        2.654    -0.269    26.970     7.713
    53   1 H        0.860     0.262     0.837     1.433
    54   1 H        0.860     0.227     0.978     1.549
    55   6 C        2.761     0.197    23.790     7.987
    56   8 O        0.856    -0.380    21.290     6.186
    57   7 N        2.638    -0.341    28.780     7.968
    58   1 H        0.860     0.141     1.465     1.896
    59   6 C        3.786     0.039    19.935     6.359
    60   1 H        0.925     0.063     2.168     2.303
    61   6 C        3.808    -0.080    22.029     6.681
    62   1 H        0.925     0.051     2.309     2.376
    63   1 H        0.925     0.063     2.168     2.303
    64   6 C        3.805    -0.081    22.034     6.683
    65   1 H        0.924     0.058     2.220     2.330
    66   1 H        0.925     0.043     2.412     2.429
    67   6 C        3.802    -0.088    22.175     6.704
    68   1 H        0.924     0.070     2.085     2.258
    69   1 H        0.925     0.062     2.177     2.307
    70   6 C        3.733    -0.043    21.433     6.608
    71   1 H        0.924     0.112     1.681     2.028
    72   1 H        0.925     0.111     1.685     2.030
    73   7 N        3.488    -0.162    24.496     7.351
    74   1 H        0.860     0.310     0.685     1.297
    75   1 H        0.860     0.310     0.683     1.295
    76   1 H        0.860     0.315     0.670     1.282
    77   6 C        2.766     0.208    23.596     7.955
    78   8 O        0.856    -0.373    21.148     6.166
    79   7 N        2.635    -0.344    28.859     7.978
    80   1 H        0.860     0.165     1.303     1.788
    81   6 C        3.784     0.041    19.903     6.355
    82   1 H        0.925     0.089     1.890     2.150
    83   6 C        3.820    -0.078    21.977     6.672
    84   1 H        0.923     0.045     2.378     2.412
    85   1 H        0.924     0.083     1.944     2.181
    86   6 C        2.972     0.013    27.719     8.636
    87   6 C        2.902    -0.040    29.002     8.830
    88   1 H        0.925     0.037     2.484     2.465
    89   6 C        2.917    -0.042    29.050     8.838
    90   1 H        0.926     0.033     2.537     2.491
    91   6 C        2.920    -0.042    29.053     8.839
    92   1 H        0.926     0.026     2.648     2.545
    93   6 C        2.902    -0.043    29.069     8.840
    94   1 H        0.926     0.048     2.351     2.398
    95   6 C        2.928    -0.050    29.243     8.868
    96   1 H        0.926     0.058     2.222     2.331
    97   6 C        2.761     0.205    23.640     7.962
    98   8 O        0.856    -0.397    21.622     6.234
    99   7 N        2.636    -0.371    29.588     8.079
   100   1 H        0.860     0.166     1.298     1.785
   101   6 C        3.787     0.043    19.862     6.348
   102   1 H        0.924     0.089     1.890     2.150
   103   6 C        3.811    -0.062    21.675     6.627
   104   1 H        0.924     0.054     2.272     2.357
   105   1 H        0.925     0.055     2.253     2.347
   106   6 C        2.956     0.008    27.850     8.656
   107   6 C        2.925    -0.042    29.046     8.838
   108   1 H        0.925     0.039     2.456     2.451
   109   6 C        2.908    -0.076    29.898     8.966
   110   1 H        0.924     0.041     2.442     2.444
   111   6 C        2.834     0.144    24.857     8.170
   112   8 O        1.659    -0.470    22.260     6.369
   113   1 H        0.805     0.382     0.519     1.132
   114   6 C        2.912    -0.065    29.619     8.924
   115   1 H        0.925     0.043     2.403     2.424
   116   6 C        2.922    -0.039    28.961     8.825
   117   1 H        0.926     0.045     2.388     2.417
   118   6 C        2.757     0.199    23.758     7.982
   119   8 O        0.856    -0.405    21.790     6.258
   120   7 N        2.639    -0.371    29.578     8.077
   121   1 H        0.860     0.184     1.193     1.711
   122   6 C        3.784     0.040    19.911     6.356
   123   1 H        0.924     0.051     2.307     2.375
   124   6 C        3.804    -0.075    21.936     6.668
   125   1 H        0.924     0.045     2.386     2.416
   126   1 H        0.925     0.070     2.090     2.261
   127   6 C        3.176     0.047    26.565     8.417
   128   7 N        1.888    -0.319    29.130     8.001
   129   6 C        3.064     0.078    26.192     8.392
   130   1 H        0.926     0.053     2.285     2.364
   131   7 N        2.822    -0.097    23.130     7.143
   132   1 H        0.860     0.222     1.001     1.567
   133   6 C        2.960    -0.031    28.770     8.798
   134   1 H        0.926     0.043     2.403     2.424
   135   6 C        2.768     0.209    23.571     7.951
   136   8 O        0.856    -0.382    21.330     6.192
   137   7 N        2.631    -0.379    29.804     8.108
   138   1 H        0.860     0.156     1.364     1.829
   139   6 C        3.795     0.029    20.088     6.382
   140   1 H        0.925     0.051     2.312     2.378
   141   6 C        3.857    -0.026    20.991     6.516
   142   1 H        0.925     0.051     2.308     2.376
   143   6 C        3.754    -0.108    22.628     6.783
   144   1 H        0.925     0.043     2.408     2.427
   145   1 H        0.925     0.039     2.461     2.453
   146   1 H        0.925     0.045     2.385     2.415
   147   6 C        3.807    -0.056    21.579     6.613
   148   1 H        0.924     0.030     2.593     2.518
   149   1 H        0.925     0.031     2.574     2.509
   150   6 C        3.749    -0.103    22.542     6.772
   151   1 H        0.924     0.031     2.579     2.511
   152   1 H        0.924     0.040     2.454     2.450
   153   1 H        0.924     0.027     2.626     2.534
   154   6 C        2.751     0.272    22.402     7.750
   155   8 O        0.861    -0.531    24.471     6.632
   156   7 N        2.689    -0.160    24.462     7.346
   157   1 H        0.860     0.225     0.988     1.557
   158   6 C        3.793     0.031    20.065     6.379
   159   1 H        0.924     0.075     2.027     2.226
   160   6 C        3.863    -0.013    20.771     6.481
   161   1 H        0.924     0.058     2.228     2.334
   162   6 C        3.757    -0.114    22.743     6.799
   163   1 H        0.924     0.047     2.353     2.399
   164   1 H        0.925     0.035     2.513     2.479
   165   1 H        0.925     0.060     2.199     2.319
   166   6 C        3.807    -0.060    21.653     6.624
   167   1 H        0.924     0.032     2.560     2.502
   168   1 H        0.925     0.041     2.430     2.438
   169   6 C        3.756    -0.105    22.556     6.772
   170   1 H        0.925     0.053     2.289     2.366
   171   1 H        0.925     0.035     2.519     2.482
   172   1 H        0.924     0.027     2.632     2.537
   173   6 C        2.758     0.204    23.671     7.967
   174   8 O        0.856    -0.362    20.933     6.134
   175   1 H        0.860     0.192     1.148     1.679
   176   1 H        0.923     0.076     2.025     2.225
   177   1 H        0.860     0.176     1.239     1.744
   178   1 H        0.923     0.043     2.412     2.429
   179   1 H        0.860     0.174     1.246     1.749
   180   1 H        0.923     0.037     2.484     2.465
   181   1 H        0.860     0.159     1.339     1.813
   182   1 H        0.923     0.039     2.466     2.456
   183   1 H        0.860     0.168     1.282     1.774
   184   1 H        0.923     0.062     2.171     2.304
   185   1 H        0.860     0.181     1.208     1.721
   186   1 H        0.923     0.049     2.328     2.386
   187   1 H        0.860     0.180     1.216     1.728
   188   1 H        0.923     0.067     2.116     2.275

 Mol. C6AA /au·bohr⁶  :     326950.573419
 Mol. C8AA /au·bohr⁸  :    7333968.634155
 Mol. α(0) /au        :        871.064631


Wiberg/Mayer (AO) data.
largest (>0.10) Wiberg bond orders for each atom

 ---------------------------------------------------------------------------
     #   Z sym  total        # sym  WBO       # sym  WBO       # sym  WBO
 ---------------------------------------------------------------------------
     1   7 N    3.001 --     3 C    1.023     2 H    0.950   175 H    0.946
     2   1 H    0.977 --     1 N    0.950
     3   6 C    3.984 --     1 N    1.023     4 H    0.952     5 C    0.950
                            19 C    0.949
     4   1 H    0.995 --     3 C    0.952
     5   6 C    3.988 --     8 C    1.013     7 H    0.967     6 H    0.965
                             3 C    0.950
     6   1 H    0.996 --     5 C    0.965
     7   1 H    0.998 --     5 C    0.967
     8   6 C    3.985 --    17 C    1.413     9 C    1.407     5 C    1.013
                            13 C    0.108
     9   6 C    3.989 --    11 C    1.444     8 C    1.407    10 H    0.969
                            15 C    0.112
    10   1 H    0.998 --     9 C    0.969
    11   6 C    3.990 --     9 C    1.444    13 C    1.439    12 H    0.970
                            17 C    0.110
    12   1 H    0.998 --    11 C    0.970
    13   6 C    3.988 --    11 C    1.439    15 C    1.436    14 H    0.971
                             8 C    0.108
    14   1 H    0.998 --    13 C    0.971
    15   6 C    3.991 --    17 C    1.441    13 C    1.436    16 H    0.972
                             9 C    0.112
    16   1 H    0.999 --    15 C    0.972
    17   6 C    3.990 --    15 C    1.441     8 C    1.413    18 H    0.963
                            11 C    0.110
    18   1 H    1.000 --    17 C    0.963
    19   6 C    3.940 --    20 O    1.616    21 N    1.301     3 C    0.949
    20   8 O    1.920 --    19 C    1.616    21 N    0.189
    21   7 N    3.474 --    19 C    1.301    23 C    0.980    22 H    0.911
                            20 O    0.189
    22   1 H    0.956 --    21 N    0.911
    23   6 C    3.969 --    31 C    0.987    21 N    0.980    24 H    0.947
                            25 C    0.942
    24   1 H    0.992 --    23 C    0.947
    25   6 C    3.981 --    26 H    0.978    27 H    0.957    23 C    0.942
                            28 C    0.939
    26   1 H    0.998 --    25 C    0.978
    27   1 H    0.997 --    25 C    0.957
    28   6 C    3.941 --    30 O    1.501    29 O    1.469    25 C    0.939
    29   8 O    1.827 --    28 C    1.469    30 O    0.216
    30   8 O    1.790 --    28 C    1.501    29 O    0.216
    31   6 C    3.873 --    32 O    1.890    23 C    0.987   176 H    0.936
    32   8 O    2.041 --    31 C    1.890
    33   7 N    3.022 --    35 C    1.029    34 H    0.960   177 H    0.953
    34   1 H    0.975 --    33 N    0.960
    35   6 C    3.982 --    33 N    1.029    55 C    0.983    37 C    0.953
                            36 H    0.932
    36   1 H    0.994 --    35 C    0.932
    37   6 C    3.987 --    40 C    1.006    39 H    0.973    38 H    0.969
                            35 C    0.953
    38   1 H    0.995 --    37 C    0.969
    39   1 H    0.998 --    37 C    0.973
    40   6 C    3.990 --    37 C    1.006    43 C    0.995    42 H    0.971
                            41 H    0.968
    41   1 H    0.995 --    40 C    0.968
    42   1 H    0.995 --    40 C    0.971
    43   6 C    3.949 --    40 C    0.995    46 N    0.981    45 H    0.965
                            44 H    0.964
    44   1 H    0.992 --    43 C    0.964
    45   1 H    0.989 --    43 C    0.965
    46   7 N    3.444 --    48 C    1.299    43 C    0.981    47 H    0.915
                            49 N    0.102
    47   1 H    0.944 --    46 N    0.915
    48   6 C    3.974 --    49 N    1.337    52 N    1.307    46 N    1.299
    49   7 N    3.407 --    48 C    1.337    50 H    0.916    51 H    0.871
                            52 N    0.106    46 N    0.102
    50   1 H    0.940 --    49 N    0.916
    51   1 H    0.942 --    49 N    0.871
    52   7 N    3.382 --    48 C    1.307    54 H    0.924    53 H    0.911
                            49 N    0.106
    53   1 H    0.931 --    52 N    0.911
    54   1 H    0.948 --    52 N    0.924
    55   6 C    3.886 --    56 O    1.875    35 C    0.983   178 H    0.936
    56   8 O    2.038 --    55 C    1.875
    57   7 N    3.057 --    59 C    0.999    58 H    0.964   179 H    0.952
    58   1 H    0.980 --    57 N    0.964
    59   6 C    3.976 --    57 N    0.999    77 C    0.973    61 C    0.969
                            60 H    0.959
    60   1 H    0.996 --    59 C    0.959
    61   6 C    3.992 --    64 C    1.003    63 H    0.974    62 H    0.974
                            59 C    0.969
    62   1 H    0.997 --    61 C    0.974
    63   1 H    0.996 --    61 C    0.974
    64   6 C    3.993 --    61 C    1.003    67 C    1.002    66 H    0.977
                            65 H    0.973
    65   1 H    0.997 --    64 C    0.973
    66   1 H    0.998 --    64 C    0.977
    67   6 C    3.989 --    70 C    1.006    64 C    1.002    69 H    0.977
                            68 H    0.971
    68   1 H    0.995 --    67 C    0.971
    69   1 H    0.996 --    67 C    0.977
    70   6 C    3.921 --    67 C    1.006    71 H    0.967    72 H    0.964
                            73 N    0.964
    71   1 H    0.987 --    70 C    0.967
    72   1 H    0.988 --    70 C    0.964
    73   7 N    3.647 --    70 C    0.964    75 H    0.891    76 H    0.887
                            74 H    0.885
    74   1 H    0.904 --    73 N    0.885
    75   1 H    0.904 --    73 N    0.891
    76   1 H    0.900 --    73 N    0.887
    77   6 C    3.886 --    78 O    1.892    59 C    0.973   180 H    0.939
    78   8 O    2.048 --    77 C    1.892
    79   7 N    3.033 --    81 C    1.031   181 H    0.960    80 H    0.957
    80   1 H    0.973 --    79 N    0.957
    81   6 C    3.984 --    79 N    1.031    97 C    0.982    83 C    0.938
                            82 H    0.937
    82   1 H    0.992 --    81 C    0.937
    83   6 C    3.989 --    86 C    1.009    84 H    0.974    85 H    0.959
                            81 C    0.938
    84   1 H    0.998 --    83 C    0.974
    85   1 H    0.993 --    83 C    0.959
    86   6 C    3.987 --    87 C    1.419    95 C    1.402    83 C    1.009
                            91 C    0.109
    87   6 C    3.988 --    89 C    1.438    86 C    1.419    88 H    0.968
                            93 C    0.107
    88   1 H    0.999 --    87 C    0.968
    89   6 C    3.990 --    87 C    1.438    91 C    1.436    90 H    0.973
                            95 C    0.115
    90   1 H    0.998 --    89 C    0.973
    91   6 C    3.989 --    93 C    1.437    89 C    1.436    92 H    0.973
                            86 C    0.109
    92   1 H    0.999 --    91 C    0.973
    93   6 C    3.988 --    95 C    1.447    91 C    1.437    94 H    0.970
                            87 C    0.107
    94   1 H    0.997 --    93 C    0.970
    95   6 C    3.988 --    93 C    1.447    86 C    1.402    96 H    0.967
                            89 C    0.115
    96   1 H    0.997 --    95 C    0.967
    97   6 C    3.879 --    98 O    1.880    81 C    0.982   182 H    0.939
    98   8 O    2.031 --    97 C    1.880
    99   7 N    3.017 --   101 C    1.029   183 H    0.958   100 H    0.954
   100   1 H    0.972 --    99 N    0.954
   101   6 C    3.984 --    99 N    1.029   118 C    0.989   103 C    0.951
                           102 H    0.923
   102   1 H    0.992 --   101 C    0.923
   103   6 C    3.989 --   106 C    1.005   105 H    0.969   104 H    0.968
                           101 C    0.951
   104   1 H    0.997 --   103 C    0.968
   105   1 H    0.996 --   103 C    0.969
   106   6 C    3.986 --   107 C    1.407   116 C    1.403   103 C    1.005
   107   6 C    3.990 --   109 C    1.456   106 C    1.407   108 H    0.969
                           114 C    0.104
   108   1 H    0.998 --   107 C    0.969
   109   6 C    3.985 --   107 C    1.456   111 C    1.360   110 H    0.968
                           116 C    0.107
   110   1 H    0.998 --   109 C    0.968
   111   6 C    3.932 --   114 C    1.363   109 C    1.360   112 O    1.074
   112   8 O    2.062 --   111 C    1.074   113 H    0.829
   113   1 H    0.854 --   112 O    0.829
   114   6 C    3.984 --   116 C    1.452   111 C    1.363   115 H    0.968
                           107 C    0.104
   115   1 H    0.998 --   114 C    0.968
   116   6 C    3.987 --   114 C    1.452   106 C    1.403   117 H    0.964
                           109 C    0.107
   117   1 H    0.998 --   116 C    0.964
   118   6 C    3.875 --   119 O    1.867   101 C    0.989   184 H    0.936
   119   8 O    2.020 --   118 C    1.867
   120   7 N    3.067 --   122 C    1.007   185 H    0.950   121 H    0.921
   121   1 H    0.966 --   120 N    0.921
   122   6 C    3.981 --   120 N    1.007   135 C    0.980   123 H    0.968
                           124 C    0.942
   123   1 H    0.997 --   122 C    0.968
   124   6 C    3.988 --   127 C    1.011   126 H    0.964   125 H    0.962
                           122 C    0.942
   125   1 H    0.998 --   124 C    0.962
   126   1 H    0.995 --   124 C    0.964
   127   6 C    3.971 --   133 C    1.561   128 N    1.272   124 C    1.011
   128   7 N    2.993 --   129 C    1.525   127 C    1.272   131 N    0.105
   129   6 C    3.957 --   128 N    1.525   131 N    1.293   130 H    0.964
                           133 C    0.121
   130   1 H    0.997 --   129 C    0.964
   131   7 N    3.594 --   129 C    1.293   133 C    1.203   132 H    0.922
                           128 N    0.105
   132   1 H    0.950 --   131 N    0.922
   133   6 C    3.941 --   127 C    1.561   131 N    1.203   134 H    0.969
                           129 C    0.121
   134   1 H    0.998 --   133 C    0.969
   135   6 C    3.878 --   136 O    1.858   122 C    0.980   186 H    0.939
   136   8 O    2.051 --   135 C    1.858
   137   7 N    3.006 --   139 C    1.017   138 H    0.954   187 H    0.953
   138   1 H    0.976 --   137 N    0.954
   139   6 C    3.978 --   137 N    1.017   140 H    0.960   141 C    0.954
                           154 C    0.943
   140   1 H    0.997 --   139 C    0.960
   141   6 C    3.991 --   143 C    1.011   147 C    0.991   142 H    0.964
                           139 C    0.954
   142   1 H    0.996 --   141 C    0.964
   143   6 C    3.993 --   141 C    1.011   145 H    0.982   146 H    0.982
                           144 H    0.977
   144   1 H    0.998 --   143 C    0.977
   145   1 H    0.998 --   143 C    0.982
   146   1 H    0.998 --   143 C    0.982
   147   6 C    3.997 --   150 C    1.019   141 C    0.991   148 H    0.977
                           149 H    0.975
   148   1 H    0.999 --   147 C    0.977
   149   1 H    0.999 --   147 C    0.975
   150   6 C    3.992 --   147 C    1.019   151 H    0.986   152 H    0.982
                           153 H    0.978
   151   1 H    0.999 --   150 C    0.986
   152   1 H    0.998 --   150 C    0.982
   153   1 H    0.999 --   150 C    0.978
   154   6 C    3.938 --   155 O    1.607   156 N    1.311   139 C    0.943
   155   8 O    1.914 --   154 C    1.607   156 N    0.193
   156   7 N    3.477 --   154 C    1.311   158 C    0.971   157 H    0.897
                           155 O    0.193
   157   1 H    0.949 --   156 N    0.897
   158   6 C    3.966 --   173 C    0.976   156 N    0.971   159 H    0.957
                           160 C    0.953
   159   1 H    0.994 --   158 C    0.957
   160   6 C    3.986 --   162 C    1.008   166 C    0.990   161 H    0.960
                           158 C    0.953
   161   1 H    0.997 --   160 C    0.960
   162   6 C    3.993 --   160 C    1.008   164 H    0.984   163 H    0.983
                           165 H    0.979
   163   1 H    0.998 --   162 C    0.983
   164   1 H    0.999 --   162 C    0.984
   165   1 H    0.996 --   162 C    0.979
   166   6 C    3.993 --   169 C    1.014   160 C    0.990   168 H    0.979
                           167 H    0.975
   167   1 H    0.999 --   166 C    0.975
   168   1 H    0.998 --   166 C    0.979
   169   6 C    3.990 --   166 C    1.014   172 H    0.989   171 H    0.986
                           170 H    0.980
   170   1 H    0.997 --   169 C    0.980
   171   1 H    0.998 --   169 C    0.986
   172   1 H    0.999 --   169 C    0.989
   173   6 C    3.864 --   174 O    1.870   158 C    0.976   188 H    0.939
   174   8 O    2.055 --   173 C    1.870
   175   1 H    0.963 --     1 N    0.946
   176   1 H    0.994 --    31 C    0.936
   177   1 H    0.969 --    33 N    0.953
   178   1 H    0.998 --    55 C    0.936
   179   1 H    0.970 --    57 N    0.952
   180   1 H    0.998 --    77 C    0.939
   181   1 H    0.974 --    79 N    0.960
   182   1 H    0.998 --    97 C    0.939
   183   1 H    0.972 --    99 N    0.958
   184   1 H    0.996 --   118 C    0.936
   185   1 H    0.967 --   120 N    0.950
   186   1 H    0.997 --   135 C    0.939
   187   1 H    0.967 --   137 N    0.953
   188   1 H    0.995 --   173 C    0.939
 ---------------------------------------------------------------------------

Topologies differ in total number of bonds
Writing topology from bond orders to xtbtopo.mol

molecular dipole:
                 x           y           z       tot (Debye)
 q only:       13.206      61.804     131.396
   full:       13.061      61.252     131.219     369.568
molecular quadrupole (traceless):
                xx          xy          yy          xz          yz          zz
 q only:   -10160.915    1380.021   -5265.701    2743.137   11863.337   15426.616
  q+dip:   -10143.010    1367.140   -5269.899    2722.276   11742.993   15412.909
   full:   -10142.033    1366.960   -5266.108    2723.958   11741.340   15408.140


           -------------------------------------------------
          | TOTAL ENERGY             -273.616541818280 Eh   |
Note: The following floating-point exceptions are signalling: IEEE_UNDERFLOW_FLAG IEEE_DENORMAL
normal termination of xtb
          | GRADIENT NORM               0.265031939777 Eh/α |
          | HOMO-LUMO GAP               1.245099310526 eV   |
           -------------------------------------------------

------------------------------------------------------------------------
 * finished run on 2026/01/05 at 09:07:46.072     
------------------------------------------------------------------------
 total:
 * wall-time:     0 d,  0 h,  0 min,  1.081 sec
 *  cpu-time:     0 d,  0 h,  0 min, 15.652 sec
 * ratio c/w:    14.480 speedup
 SCF:
 * wall-time:     0 d,  0 h,  0 min,  1.029 sec
 *  cpu-time:     0 d,  0 h,  0 min, 14.893 sec
 * ratio c/w:    14.471 speedup

