      -----------------------------------------------------------      
     |                   =====================                   |     
     |                           x T B                           |     
     |                   =====================                   |     
     |                         S. Grimme                         |     
     |          Mulliken Center for Theoretical Chemistry        |     
     |                    University of Bonn                     |     
      -----------------------------------------------------------      

   * xtb version 6.7.1 (edcfbbe) compiled by 'conda@c0858423619e' on 2025-09-04

   xtb is free software: you can redistribute it and/or modify it under
   the terms of the GNU Lesser General Public License as published by
   the Free Software Foundation, either version 3 of the License, or
   (at your option) any later version.
   
   xtb is distributed in the hope that it will be useful,
   but WITHOUT ANY WARRANTY; without even the implied warranty of
   MERCHANTABILITY or FITNESS FOR A PARTICULAR PURPOSE.  See the
   GNU Lesser General Public License for more details.
   
   Cite this work as:
   * C. Bannwarth, E. Caldeweyher, S. Ehlert, A. Hansen, P. Pracht,
     J. Seibert, S. Spicher, S. Grimme, WIREs Comput. Mol. Sci., 2020, 11,
     e01493. DOI: 10.1002/wcms.1493
   
   for GFN2-xTB:
   * C. Bannwarth, S. Ehlert and S. Grimme., J. Chem. Theory Comput., 2019,
     15, 1652-1671. DOI: 10.1021/acs.jctc.8b01176
   for GFN1-xTB:
   * S. Grimme, C. Bannwarth, P. Shushkov, J. Chem. Theory Comput., 2017,
     13, 1989-2009. DOI: 10.1021/acs.jctc.7b00118
   for GFN0-xTB:
   * P. Pracht, E. Caldeweyher, S. Ehlert, S. Grimme, ChemRxiv, 2019, preprint.
     DOI: 10.26434/chemrxiv.8326202.v1
   for GFN-FF:
   * S. Spicher and S. Grimme, Angew. Chem. Int. Ed., 2020, 59, 15665-15673.
     DOI: 10.1002/anie.202004239
   
   for ALPB and GBSA implicit solvation:
   * S. Ehlert, M. Stahn, S. Spicher, S. Grimme, J. Chem. Theory Comput.,
     2021, 17, 4250-4261. DOI: 10.1021/acs.jctc.1c00471
   
   for ddCOSMO and CPCM-X implicit solvation:
   * M. Stahn, S. Ehlert, S. Grimme, J. Phys. Chem. A,
     2023, XX, XXXX-XXXX. DOI: 10.1021/acs.jpca.3c04382
   
   for DFT-D4:
   * E. Caldeweyher, C. Bannwarth and S. Grimme, J. Chem. Phys., 2017,
     147, 034112. DOI: 10.1063/1.4993215
   * E. Caldeweyher, S. Ehlert, A. Hansen, H. Neugebauer, S. Spicher,
     C. Bannwarth and S. Grimme, J. Chem. Phys., 2019, 150, 154122.
     DOI: 10.1063/1.5090222
   * E. Caldeweyher, J.-M. Mewes, S. Ehlert and S. Grimme, Phys. Chem. Chem. Phys.
     2020, 22, 8499-8512. DOI: 10.1039/D0CP00502A
   
   for sTDA-xTB:
   * S. Grimme and C. Bannwarth, J. Chem. Phys., 2016, 145, 054103.
     DOI: 10.1063/1.4959605
   
   in the mass-spec context:
   * V. Asgeirsson, C. Bauer and S. Grimme, Chem. Sci., 2017, 8, 4879.
     DOI: 10.1039/c7sc00601b
   * J. Koopman and S. Grimme, ACS Omega 2019, 4, 12, 15120-15133.
     DOI: 10.1021/acsomega.9b02011
   
   for metadynamics refer to:
   * S. Grimme, J. Chem. Theory Comput., 2019, 155, 2847-2862
     DOI: 10.1021/acs.jctc.9b00143
   
   for SPH calculations refer to:
   * S. Spicher and S. Grimme, J. Chem. Theory Comput., 2021, 17, 1701-1714
     DOI: 10.1021/acs.jctc.0c01306
   
   for ONIOM refer to:
   * C. Plett, A. Katbashev, S. Ehlert, S. Grimme, M. Bursch,
     Phys. Chem. Chem. Phys., 2023, 25, 17860-17868. DOI: 10.1039/D3CP02178E
   
   for DIPRO refer to:
   * J. Kohn, N. Gildemeister, S. Grimme, D. Fazzi, A. Hansen,
     J. Chem. Phys., 2023, just accepted.
   
   for PTB refer to:
   * S. Grimme, M. Mueller, A. Hansen, J. Chem. Phys., 2023, 158, 124111.
     DOI: 10.1063/5.0137838
   
   with help from (in alphabetical order)
   P. Atkinson, C. Bannwarth, F. Bohle, G. Brandenburg, E. Caldeweyher
   M. Checinski, S. Dohm, S. Ehlert, S. Ehrlich, I. Gerasimov, C. Hölzer
   A. Katbashev, J. Kohn, J. Koopman, C. Lavigne, S. Lehtola, F. März, M. Müller,
   F. Musil, H. Neugebauer, J. Pisarek, C. Plett, P. Pracht, F. Pultar,
   J. Seibert, P. Shushkov, S. Spicher, M. Stahn, M. Steiner, T. Strunk,
   J. Stückrath, T. Rose, and J. Unsleber
   
 * started run on 2026/01/05 at 09:07:50.486     
   ID    Z sym.   atoms
    1    6 C      1, 3-11, 14-16, 18, 20, 21, 24-29, 32, 62, 64, 67, 68, 70,
                  72, 75, 77, 79, 83, 85, 88, 89, 91, 93, 95, 97, 99, 103,
                  105, 108, 111, 115, 117, 120, 123, 128, 135, 139, 141, 144,
                  147, 150, 157, 161, 163, 166, 167, 169, 171, 173, 175, 177,
                  181, 183, 186, 189, 192, 199, 203, 205, 208, 209, 211, 213,
                  215, 217, 219, 223, 225, 228, 231, 234, 238, 240, 242, 246,
                  250, 254, 256, 258, 262, 265, 269
    2    7 N      2, 22, 60, 81, 101, 113, 126, 129, 132, 137, 153, 159, 179,
                  195, 201, 221, 236, 252
    3    8 O      12, 13, 17, 30, 31, 73, 80, 100, 109, 110, 112, 136, 158,
                  178, 200, 220, 232, 233, 235, 251, 270
    4   16 S      19, 23
    5    1 H      33-59, 61, 63, 65, 66, 69, 71, 74, 76, 78, 82, 84, 86, 87,
                  90, 92, 94, 96, 98, 102, 104, 106, 107, 114, 116, 118, 119,
                  121, 122, 124, 125, 127, 130, 131, 133, 134, 138, 140, 142,
                  143, 145, 146, 148, 149, 151, 152, 154-156, 160, 162, 164,
                  165, 168, 170, 172, 174, 176, 180, 182, 184, 185, 187, 188,
                  190, 191, 193, 194, 196-198, 202, 204, 206, 207, 210, 212,
                  214, 216, 218, 222, 224, 226, 227, 229, 230, 237, 239, 241,
                  243-245, 247-249, 253, 255, 257, 259-261, 263, 264,
                  266-268, 271-284

           -------------------------------------------------
          |                Calculation Setup                |
           -------------------------------------------------

          program call               : xtb /home/antonio_mesquita/Documentos/gmx_ISA_project/testes_arquivos_primeiros/gmx_ISA_testes/testes_qm_xtb/QM_analysis/QM_FRAMES_CAPPED/frame_600ps/complex_capped_600ps.xyz --gfn 2 --alpb water --chrg 2 --etemp 1500 --cycles 1000
          coordinate file            : /home/antonio_mesquita/Documentos/gmx_ISA_project/testes_arquivos_primeiros/gmx_ISA_testes/testes_qm_xtb/QM_analysis/QM_FRAMES_CAPPED/frame_600ps/complex_capped_600ps.xyz
          omp threads                :                    16


molecular fragmentation (1/2 indicates fragments):
111111111111111111111111111111111111111111111111111111111112222222222222
222222222222222222222222222222222222222222222222222222222222222222222222
222222222222222222222222222222222222222222222222222222222222222222222222
22222222222222222222222222222222222222222222222222222222222222222222
# atoms in fragment 1/2:    59   225
 fragment masses (1/2) :      475.60     1488.84
CMA distance (Bohr)    :   8.752
constraining FC (au)   :  0.0500

           -------------------------------------------------
          |                 G F N 2 - x T B                 |
           -------------------------------------------------

        Reference                      10.1021/acs.jctc.8b01176
      * Hamiltonian:
        H0-scaling (s, p, d)           1.850000    2.230000    2.230000
        zeta-weighting                 0.500000
      * Dispersion:
        s8                             2.700000
        a1                             0.520000
        a2                             5.000000
        s9                             5.000000
      * Repulsion:
        kExp                           1.500000    1.000000
        rExp                           1.000000
      * Coulomb:
        alpha                          2.000000
        third order                    shell-resolved
        anisotropic                    true
        a3                             3.000000
        a5                             4.000000
        cn-shift                       1.200000
        cn-exp                         4.000000
        max-rad                        5.000000

      * Solvation model:               ALPB
        Solvent                        water
        Parameter file                 internal GFN2-xTB/ALPB
        Dielectric constant                8.0200E+01
        Reference state                gsolv [1 M gas/solution]
        Free energy shift                  1.0808E-03 Eh       6.7819E-01 kcal/mol
        Temperature                        2.9815E+02 K
        Density                            1.0000E+00 kg/L
        Solvent mass                       1.8000E+01 g/mol
        Interaction kernel             P16
        Born radius scaling (c1)           1.4744E+00
        Born radii integrator          GBOBC
        Born offset                        0.0000E+00 a0       0.0000E+00 AA
        H-bond correction              true
        Ion screening                  false
        Surface tension                    1.0000E-05 Eh       1.5569E+01 dyn/cm
        Grid points                               230 per atom

          ...................................................
          :                      SETUP                      :
          :.................................................:
          :  # basis functions                 710          :
          :  # atomic orbitals                 708          :
          :  # shells                          424          :
          :  # electrons                       760          :
          :  max. iterations                   250          :
          :  Hamiltonian                  GFN2-xTB          :
          :  restarted?                      false          :
          :  GBSA solvation                   true          :
          :  PC potential                    false          :
          :  electronic temp.         1500.0000000     K    :
          :  accuracy                    1.0000000          :
          :  -> integral cutoff          0.2500000E+02      :
          :  -> integral neglect         0.1000000E-07      :
          :  -> SCF convergence          0.1000000E-05 Eh   :
          :  -> wf. convergence          0.1000000E-03 e    :
          :  Broyden damping             0.4000000          :
          :  net charge                          2          :
          :  unpaired electrons                  0          :
          ...................................................

 iter      E             dE          RMSdq      gap      omega  full diag
   1   -430.0994762 -0.430099E+03  0.451E+00    0.01       0.0  T
   2   -430.8361324 -0.736656E+00  0.252E+00    1.21       1.0  T
   3   -430.6974635  0.138669E+00  0.167E+00    0.04       1.0  T
   4   -430.9532136 -0.255750E+00  0.842E-01    0.70       1.0  T
   5   -430.9821105 -0.288969E-01  0.657E-01    0.06       1.0  T
   6   -431.1034256 -0.121315E+00  0.210E-01    0.21       1.0  T
   7   -431.1025185  0.907088E-03  0.177E-01    0.31       1.0  T
   8   -431.1078584 -0.533990E-02  0.986E-02    0.28       1.0  T
   9   -431.1080129 -0.154446E-03  0.808E-02    0.28       1.0  T
  10   -431.1093431 -0.133023E-02  0.398E-02    0.31       1.0  T
  11   -431.1094795 -0.136364E-03  0.258E-02    0.30       1.0  T
  12   -431.1095894 -0.109922E-03  0.152E-02    0.31       1.0  T
  13   -431.1096258 -0.363968E-04  0.834E-03    0.31       1.0  T
  14   -431.1096292 -0.337485E-05  0.625E-03    0.32       1.0  T
  15   -431.1096367 -0.750417E-05  0.316E-03    0.31       1.9  T
  16   -431.1096385 -0.178917E-05  0.131E-03    0.31       4.5  T
  17   -431.1096385 -0.481890E-08  0.114E-03    0.31       5.2  T
  18   -431.1096387 -0.283765E-06  0.497E-04    0.31      12.0  T
  19   -431.1096388 -0.311186E-07  0.246E-04    0.31      24.1  T

   *** convergence criteria satisfied after 19 iterations ***

         #    Occupation            Energy/Eh            Energy/eV
      -------------------------------------------------------------
         1        2.0000           -0.7942932             -21.6138
       ...           ...                  ...                  ...
       374        1.9392           -0.3627067              -9.8698
       375        1.9014           -0.3603159              -9.8047
       376        1.8933           -0.3599197              -9.7939
       377        1.8532           -0.3583057              -9.7500
       378        1.8435           -0.3579752              -9.7410
       379        1.8382           -0.3578021              -9.7363
       380        1.8339           -0.3576671              -9.7326 (HOMO)
       381        0.9920           -0.3461838              -9.4201 (LUMO)
       382        0.0000           -0.2957898              -8.0489
       383        0.0000           -0.2949310              -8.0255
       384        0.0000           -0.2938598              -7.9963
       385        0.0000           -0.2931348              -7.9766
       ...           ...                  ...                  ...
       708                          1.0237392              27.8574
      -------------------------------------------------------------
                  HL-Gap            0.0114833 Eh            0.3125 eV
             Fermi-level           -0.3462594 Eh           -9.4222 eV

 SCC (total)                   0 d,  0 h,  0 min,  3.924 sec
 SCC setup                      ...        0 min,  0.015 sec (  0.377%)
 Dispersion                     ...        0 min,  0.039 sec (  0.991%)
 classical contributions        ...        0 min,  0.003 sec (  0.078%)
 integral evaluation            ...        0 min,  0.052 sec (  1.332%)
 iterations                     ...        0 min,  3.511 sec ( 89.474%)
 molecular gradient             ...        0 min,  0.280 sec (  7.126%)
 printout                       ...        0 min,  0.024 sec (  0.621%)

         :::::::::::::::::::::::::::::::::::::::::::::::::::::
         ::                     SUMMARY                     ::
         :::::::::::::::::::::::::::::::::::::::::::::::::::::
         :: total energy            -425.730111845910 Eh    ::
         :: total w/o Gsasa/hb      -425.685455010112 Eh    ::
         :: gradient norm              0.332328692816 Eh/a0 ::
         :: HOMO-LUMO gap              0.312475596166 eV    ::
         ::.................................................::
         :: SCC energy              -431.091806020869 Eh    ::
         :: -> isotropic ES            1.423153334476 Eh    ::
         :: -> anisotropic ES         -0.089529475132 Eh    ::
         :: -> anisotropic XC          0.185285263527 Eh    ::
         :: -> dispersion             -0.326573773786 Eh    ::
         :: -> Gsolv                  -0.627456031602 Eh    ::
         ::    -> Gelec               -0.582799195804 Eh    ::
         ::    -> Gsasa                0.012012678508 Eh    ::
         ::    -> Ghb                 -0.057750274005 Eh    ::
         ::    -> Gshift               0.001080759698 Eh    ::
         :: repulsion energy           5.361694174958 Eh    ::
         :: add. restraining           0.000000000000 Eh    ::
         :: total charge               2.000000000000 e     ::
         :::::::::::::::::::::::::::::::::::::::::::::::::::::

           -------------------------------------------------
          |                Property Printout                |
           -------------------------------------------------

    * Orbital Energies and Occupations

         #    Occupation            Energy/Eh            Energy/eV
      -------------------------------------------------------------
         1        2.0000           -0.7942932             -21.6138
       ...           ...                  ...                  ...
       368        1.9998           -0.3901771             -10.6173
       369        1.9998           -0.3898835             -10.6093
       370        1.9977           -0.3784021             -10.2968
       371        1.9972           -0.3774417             -10.2707
       372        1.9639           -0.3652472              -9.9389
       373        1.9475           -0.3634233              -9.8893
       374        1.9392           -0.3627067              -9.8698
       375        1.9014           -0.3603159              -9.8047
       376        1.8933           -0.3599197              -9.7939
       377        1.8532           -0.3583057              -9.7500
       378        1.8435           -0.3579752              -9.7410
       379        1.8382           -0.3578021              -9.7363
       380        1.8339           -0.3576671              -9.7326 (HOMO)
       381        0.9920           -0.3461838              -9.4201 (LUMO)
       382        0.0000           -0.2957898              -8.0489
       383        0.0000           -0.2949310              -8.0255
       384        0.0000           -0.2938598              -7.9963
       385        0.0000           -0.2931348              -7.9766
       386        0.0000           -0.2814860              -7.6596
       387        0.0000           -0.2799767              -7.6186
       388        0.0000           -0.2790393              -7.5930
       389                         -0.2614568              -7.1146
       390                         -0.2518602              -6.8535
       391                         -0.2462564              -6.7010
       ...                                ...                  ...
       708                          1.0237392              27.8574
      -------------------------------------------------------------
                  HL-Gap            0.0114833 Eh            0.3125 eV
             Fermi-level           -0.3462594 Eh           -9.4222 eV

     #   Z          covCN         q      C6AA      α(0)
     1   6 C        2.746     0.263    22.557     7.777
     2   7 N        2.691    -0.115    23.519     7.203
     3   6 C        2.871     0.031    27.305     8.566
     4   6 C        3.675     0.074    19.570     6.339
     5   6 C        3.803    -0.065    21.748     6.639
     6   6 C        2.953     0.019    27.584     8.614
     7   6 C        2.925    -0.038    28.952     8.824
     8   6 C        2.905    -0.033    28.823     8.803
     9   6 C        2.916    -0.019    28.471     8.750
    10   6 C        2.902    -0.030    28.746     8.791
    11   6 C        2.932    -0.034    28.858     8.810
    12   8 O        1.702    -0.301    19.007     5.886
    13   8 O        0.857    -0.461    22.929     6.420
    14   6 C        2.698     0.332    21.356     7.564
    15   6 C        3.746    -0.140    23.264     6.880
    16   6 C        3.812     0.009    20.410     6.430
    17   8 O        0.857    -0.486    23.477     6.496
    18   6 C        3.789    -0.046    21.415     6.591
    19  16 S        1.964    -0.078   144.289    20.217
    20   6 C        3.792    -0.049    21.461     6.597
    21   6 C        3.838     0.029    20.062     6.372
    22   7 N        2.732    -0.284    27.317     7.763
    23  16 S        3.748     1.165   102.046    17.002
    24   6 C        2.955    -0.099    30.487     9.056
    25   6 C        2.939    -0.027    28.678     8.783
    26   6 C        2.917    -0.027    28.675     8.781
    27   6 C        2.958     0.040    27.099     8.538
    28   6 C        2.914    -0.032    28.805     8.801
    29   6 C        2.939    -0.030    28.751     8.794
    30   8 O        0.859    -0.675    28.040     7.100
    31   8 O        0.859    -0.669    27.874     7.079
    32   6 C        3.750    -0.130    23.063     6.849
    33   1 H        0.861     0.270     0.811     1.411
    34   1 H        0.924     0.070     2.090     2.261
    35   1 H        0.923     0.072     2.061     2.245
    36   1 H        0.924     0.080     1.976     2.198
    37   1 H        0.923     0.066     2.125     2.280
    38   1 H        0.924     0.057     2.229     2.335
    39   1 H        0.925     0.047     2.361     2.403
    40   1 H        0.925     0.009     2.907     2.666
    41   1 H        0.924     0.027     2.626     2.534
    42   1 H        0.926     0.021     2.712     2.575
    43   1 H        0.924     0.077     2.016     2.220
    44   1 H        0.923     0.082     1.956     2.187
    45   1 H        0.924     0.061     2.190     2.314
    46   1 H        0.923     0.046     2.375     2.410
    47   1 H        0.923     0.055     2.260     2.351
    48   1 H        0.924     0.077     2.016     2.220
    49   1 H        0.923     0.117     1.641     2.003
    50   1 H        0.923     0.087     1.904     2.158
    51   1 H        0.923     0.085     1.924     2.169
    52   1 H        0.922     0.061     2.191     2.315
    53   1 H        0.926     0.066     2.131     2.283
    54   1 H        0.925     0.065     2.136     2.286
    55   1 H        0.925     0.080     1.982     2.202
    56   1 H        0.925     0.049     2.333     2.389
    57   1 H        0.923     0.061     2.183     2.311
    58   1 H        0.923     0.060     2.197     2.318
    59   1 H        0.923     0.091     1.870     2.139
    60   7 N        2.631    -0.329    28.472     7.925
    61   1 H        0.860     0.199     1.110     1.650
    62   6 C        3.785     0.036    19.978     6.366
    63   1 H        0.925     0.091     1.872     2.140
    64   6 C        3.812    -0.077    21.964     6.671
    65   1 H        0.924     0.077     2.006     2.215
    66   1 H        0.925     0.055     2.260     2.351
    67   6 C        2.954    -0.001    28.044     8.686
    68   6 C        2.921    -0.044    29.091     8.845
    69   1 H        0.926     0.019     2.746     2.591
    70   6 C        2.901    -0.068    29.699     8.936
    71   1 H        0.925     0.027     2.635     2.538
    72   6 C        2.846     0.141    24.930     8.183
    73   8 O        1.660    -0.451    21.861     6.312
    74   1 H        0.809     0.355     0.576     1.192
    75   6 C        2.904    -0.066    29.636     8.926
    76   1 H        0.926     0.070     2.088     2.259
    77   6 C        2.923    -0.044    29.103     8.847
    78   1 H        0.925     0.058     2.225     2.332
    79   6 C        2.759     0.206    23.631     7.961
    80   8 O        0.857    -0.387    21.432     6.207
    81   7 N        2.634    -0.350    29.011     7.999
    82   1 H        0.860     0.170     1.271     1.766
    83   6 C        3.784     0.034    20.026     6.374
    84   1 H        0.924     0.077     2.007     2.215
    85   6 C        3.812    -0.076    21.942     6.667
    86   1 H        0.924     0.067     2.115     2.274
    87   1 H        0.925     0.062     2.178     2.308
    88   6 C        2.960     0.011    27.769     8.644
    89   6 C        2.915    -0.046    29.138     8.852
    90   1 H        0.926     0.048     2.347     2.396
    91   6 C        2.908    -0.042    29.031     8.835
    92   1 H        0.926     0.040     2.451     2.448
    93   6 C        2.911    -0.041    29.008     8.832
    94   1 H        0.925     0.030     2.584     2.514
    95   6 C        2.911    -0.040    29.003     8.831
    96   1 H        0.926     0.028     2.609     2.526
    97   6 C        2.915    -0.042    29.049     8.838
    98   1 H        0.926     0.032     2.551     2.498
    99   6 C        2.751     0.274    22.371     7.745
   100   8 O        0.865    -0.511    24.020     6.571
   101   7 N        2.690    -0.168    24.631     7.371
   102   1 H        0.860     0.209     1.062     1.614
   103   6 C        3.790     0.038    19.940     6.359
   104   1 H        0.924     0.105     1.742     2.064
   105   6 C        3.807    -0.081    22.042     6.683
   106   1 H        0.925     0.034     2.531     2.488
   107   1 H        0.924     0.062     2.173     2.305
   108   6 C        2.688     0.359    20.905     7.483
   109   8 O        0.856    -0.621    26.634     6.919
   110   8 O        0.857    -0.587    25.810     6.811
   111   6 C        2.761     0.211    23.534     7.944
   112   8 O        0.856    -0.369    21.071     6.154
   113   7 N        2.634    -0.342    28.800     7.970
   114   1 H        0.860     0.198     1.116     1.655
   115   6 C        3.786     0.032    20.044     6.377
   116   1 H        0.924     0.086     1.918     2.166
   117   6 C        3.807    -0.074    21.917     6.664
   118   1 H        0.924     0.084     1.940     2.178
   119   1 H        0.925     0.071     2.078     2.254
   120   6 C        3.802    -0.081    22.041     6.684
   121   1 H        0.924     0.055     2.256     2.349
   122   1 H        0.924     0.066     2.125     2.280
   123   6 C        3.736    -0.027    21.140     6.561
   124   1 H        0.924     0.082     1.959     2.189
   125   1 H        0.925     0.105     1.743     2.065
   126   7 N        2.693    -0.139    24.007     7.277
   127   1 H        0.861     0.239     0.926     1.508
   128   6 C        2.734     0.231    23.142     7.876
   129   7 N        2.649    -0.277    27.161     7.740
   130   1 H        0.860     0.238     0.932     1.513
   131   1 H        0.861     0.237     0.936     1.515
   132   7 N        2.646    -0.255    26.616     7.662
   133   1 H        0.860     0.253     0.870     1.461
   134   1 H        0.860     0.228     0.973     1.545
   135   6 C        2.759     0.195    23.830     7.994
   136   8 O        0.858    -0.365    20.993     6.143
   137   7 N        2.634    -0.307    27.898     7.845
   138   1 H        0.860     0.169     1.280     1.772
   139   6 C        3.786     0.042    19.892     6.353
   140   1 H        0.924     0.062     2.173     2.305
   141   6 C        3.811    -0.078    21.984     6.674
   142   1 H        0.924     0.071     2.073     2.252
   143   1 H        0.924     0.065     2.141     2.288
   144   6 C        3.801    -0.074    21.918     6.666
   145   1 H        0.924     0.048     2.347     2.396
   146   1 H        0.924     0.048     2.340     2.392
   147   6 C        3.802    -0.087    22.167     6.703
   148   1 H        0.925     0.075     2.026     2.226
   149   1 H        0.924     0.067     2.124     2.279
   150   6 C        3.731    -0.044    21.449     6.611
   151   1 H        0.924     0.110     1.693     2.035
   152   1 H        0.924     0.110     1.695     2.036
   153   7 N        3.487    -0.158    24.401     7.337
   154   1 H        0.860     0.309     0.687     1.298
   155   1 H        0.860     0.311     0.682     1.294
   156   1 H        0.860     0.309     0.686     1.297
   157   6 C        2.764     0.200    23.735     7.979
   158   8 O        0.857    -0.349    20.689     6.098
   159   7 N        2.644    -0.300    27.735     7.822
   160   1 H        0.860     0.190     1.160     1.687
   161   6 C        3.787     0.029    20.103     6.386
   162   1 H        0.925     0.082     1.954     2.186
   163   6 C        3.816    -0.080    22.018     6.678
   164   1 H        0.923     0.060     2.201     2.320
   165   1 H        0.925     0.103     1.755     2.071
   166   6 C        2.955     0.012    27.736     8.638
   167   6 C        2.919    -0.043    29.075     8.842
   168   1 H        0.925     0.037     2.483     2.464
   169   6 C        2.910    -0.037    28.923     8.819
   170   1 H        0.926     0.027     2.630     2.536
   171   6 C        2.908    -0.040    28.984     8.828
   172   1 H        0.925     0.012     2.851     2.640
   173   6 C        2.911    -0.038    28.954     8.823
   174   1 H        0.926     0.020     2.740     2.589
   175   6 C        2.919    -0.050    29.232     8.866
   176   1 H        0.925     0.061     2.183     2.311
   177   6 C        2.750     0.264    22.539     7.774
   178   8 O        0.861    -0.511    24.025     6.572
   179   7 N        2.688    -0.166    24.601     7.367
   180   1 H        0.860     0.204     1.086     1.633
   181   6 C        3.794     0.019    20.255     6.409
   182   1 H        0.924     0.071     2.072     2.251
   183   6 C        3.815    -0.074    21.906     6.661
   184   1 H        0.924     0.079     1.985     2.203
   185   1 H        0.925     0.046     2.373     2.409
   186   6 C        3.805    -0.070    21.840     6.653
   187   1 H        0.925     0.039     2.466     2.456
   188   1 H        0.924     0.075     2.029     2.228
   189   6 C        3.816    -0.093    22.262     6.715
   190   1 H        0.925     0.081     1.966     2.193
   191   1 H        0.925     0.054     2.273     2.358
   192   6 C        3.735    -0.044    21.446     6.609
   193   1 H        0.924     0.106     1.732     2.058
   194   1 H        0.925     0.132     1.517     1.926
   195   7 N        3.494    -0.168    24.615     7.369
   196   1 H        0.860     0.310     0.685     1.297
   197   1 H        0.860     0.324     0.647     1.260
   198   1 H        0.860     0.300     0.714     1.324
   199   6 C        2.749     0.276    22.337     7.739
   200   8 O        0.858    -0.494    23.661     6.522
   201   7 N        2.691    -0.156    24.383     7.334
   202   1 H        0.860     0.220     1.010     1.574
   203   6 C        3.789     0.044    19.852     6.346
   204   1 H        0.924     0.083     1.951     2.184
   205   6 C        3.814    -0.056    21.576     6.611
   206   1 H        0.925     0.073     2.048     2.238
   207   1 H        0.924     0.040     2.454     2.450
   208   6 C        2.965     0.012    27.743     8.639
   209   6 C        2.908    -0.033    28.812     8.802
   210   1 H        0.925     0.026     2.645     2.543
   211   6 C        2.922    -0.037    28.913     8.818
   212   1 H        0.926     0.037     2.487     2.466
   213   6 C        2.912    -0.042    29.041     8.837
   214   1 H        0.925     0.042     2.428     2.437
   215   6 C        2.909    -0.040    28.981     8.827
   216   1 H        0.926     0.049     2.332     2.388
   217   6 C        2.924    -0.038    28.950     8.824
   218   1 H        0.925     0.038     2.480     2.463
   219   6 C        2.759     0.211    23.534     7.944
   220   8 O        0.856    -0.363    20.965     6.139
   221   7 N        2.631    -0.369    29.524     8.070
   222   1 H        0.860     0.178     1.226     1.734
   223   6 C        3.788     0.028    20.113     6.387
   224   1 H        0.925     0.049     2.333     2.389
   225   6 C        3.805    -0.051    21.489     6.599
   226   1 H        0.924     0.039     2.468     2.457
   227   1 H        0.925     0.047     2.352     2.399
   228   6 C        3.799    -0.089    22.189     6.707
   229   1 H        0.924     0.036     2.498     2.472
   230   1 H        0.925     0.042     2.426     2.436
   231   6 C        2.686     0.363    20.838     7.470
   232   8 O        0.862    -0.642    27.164     6.988
   233   8 O        0.862    -0.632    26.925     6.957
   234   6 C        2.747     0.265    22.529     7.772
   235   8 O        0.859    -0.528    24.423     6.626
   236   7 N        2.688    -0.158    24.427     7.340
   237   1 H        0.860     0.219     1.016     1.579
   238   6 C        3.792     0.029    20.094     6.384
   239   1 H        0.925     0.091     1.866     2.136
   240   6 C        3.857    -0.013    20.763     6.480
   241   1 H        0.924     0.055     2.258     2.350
   242   6 C        3.756    -0.101    22.492     6.762
   243   1 H        0.924     0.044     2.402     2.424
   244   1 H        0.925     0.036     2.508     2.477
   245   1 H        0.924     0.055     2.253     2.347
   246   6 C        3.756    -0.120    22.860     6.817
   247   1 H        0.924     0.043     2.404     2.424
   248   1 H        0.925     0.053     2.287     2.365
   249   1 H        0.924     0.053     2.280     2.362
   250   6 C        2.763     0.206    23.623     7.960
   251   8 O        0.856    -0.366    21.023     6.147
   252   7 N        2.632    -0.345    28.880     7.981
   253   1 H        0.860     0.179     1.219     1.729
   254   6 C        3.788     0.036    19.987     6.367
   255   1 H        0.925     0.072     2.060     2.244
   256   6 C        3.853    -0.028    21.029     6.522
   257   1 H        0.924     0.060     2.196     2.318
   258   6 C        3.752    -0.122    22.897     6.824
   259   1 H        0.924     0.041     2.432     2.439
   260   1 H        0.925     0.063     2.169     2.303
   261   1 H        0.925     0.028     2.620     2.531
   262   6 C        3.801    -0.057    21.596     6.616
   263   1 H        0.924     0.020     2.738     2.587
   264   1 H        0.924     0.045     2.384     2.414
   265   6 C        3.750    -0.108    22.627     6.784
   266   1 H        0.924     0.042     2.428     2.437
   267   1 H        0.925     0.033     2.542     2.493
   268   1 H        0.925     0.048     2.341     2.393
   269   6 C        2.757     0.207    23.608     7.957
   270   8 O        0.858    -0.388    21.442     6.208
   271   1 H        0.860     0.214     1.037     1.595
   272   1 H        0.923     0.055     2.262     2.352
   273   1 H        0.860     0.202     1.095     1.639
   274   1 H        0.923     0.080     1.982     2.202
   275   1 H        0.860     0.180     1.214     1.726
   276   1 H        0.923     0.061     2.183     2.311
   277   1 H        0.860     0.187     1.174     1.697
   278   1 H        0.923     0.069     2.099     2.266
   279   1 H        0.860     0.195     1.131     1.666
   280   1 H        0.923     0.064     2.158     2.298
   281   1 H        0.860     0.187     1.174     1.697
   282   1 H        0.923     0.072     2.062     2.245
   283   1 H        0.860     0.207     1.071     1.621
   284   1 H        0.923     0.065     2.138     2.287

 Mol. C6AA /au·bohr⁶  :     797816.331857
 Mol. C8AA /au·bohr⁸  :   18529617.483255
 Mol. α(0) /au        :       1365.443918


Wiberg/Mayer (AO) data.
largest (>0.10) Wiberg bond orders for each atom

 ---------------------------------------------------------------------------
     #   Z sym  total        # sym  WBO       # sym  WBO       # sym  WBO
 ---------------------------------------------------------------------------
     1   6 C    3.873 --    17 O    1.649     2 N    1.200    21 C    0.936
     2   7 N    3.503 --     1 C    1.200     3 C    1.194    33 H    0.863
                            17 O    0.144
     3   6 C    3.485 --     2 N    1.194    14 C    1.091     5 C    1.036
     4   6 C    3.894 --    15 C    1.008    35 H    0.968    34 H    0.965
                            12 O    0.918
     5   6 C    3.975 --     3 C    1.036     6 C    0.962    36 H    0.954
                            37 H    0.947
     6   6 C    3.950 --    11 C    1.414     7 C    1.412     5 C    0.962
                             9 C    0.110
     7   6 C    3.985 --     8 C    1.443     6 C    1.412    38 H    0.965
                            10 C    0.110
     8   6 C    3.983 --     7 C    1.443     9 C    1.430    39 H    0.969
                            11 C    0.113
     9   6 C    3.989 --    10 C    1.443     8 C    1.430    40 H    0.972
                             6 C    0.110
    10   6 C    3.988 --     9 C    1.443    11 C    1.436    41 H    0.963
                             7 C    0.110
    11   6 C    3.987 --    10 C    1.436     6 C    1.414    42 H    0.969
                             8 C    0.113
    12   8 O    2.241 --    14 C    1.108     4 C    0.918    13 O    0.157
    13   8 O    1.866 --    14 C    1.607    12 O    0.157
    14   6 C    3.884 --    13 O    1.607    12 O    1.108     3 C    1.091
    15   6 C    3.976 --     4 C    1.008    45 H    0.982    44 H    0.982
                            43 H    0.979
    16   6 C    3.938 --    18 C    1.006    22 N    0.974    46 H    0.957
                            47 H    0.954
    17   8 O    1.904 --     1 C    1.649     2 N    0.144
    18   6 C    3.964 --    16 C    1.006    19 S    0.988    48 H    0.969
                            49 H    0.959
    19  16 S    2.125 --    20 C    0.991    18 C    0.988
    20   6 C    3.965 --    19 S    0.991    21 C    0.984    50 H    0.965
                            51 H    0.956
    21   6 C    3.956 --    20 C    0.984    22 N    0.966    52 H    0.942
                             1 C    0.936
    22   7 N    3.193 --    16 C    0.974    21 C    0.966    23 S    0.912
    23  16 S    4.812 --    31 O    1.536    30 O    1.526    22 N    0.912
                            24 C    0.743
    24   6 C    3.944 --    29 C    1.406    25 C    1.401    23 S    0.743
                            27 C    0.105
    25   6 C    3.983 --    26 C    1.455    24 C    1.401    53 H    0.964
                            28 C    0.104
    26   6 C    3.987 --    25 C    1.455    27 C    1.397    54 H    0.962
                            29 C    0.103
    27   6 C    3.983 --    28 C    1.400    26 C    1.397    32 C    1.030
                            24 C    0.105
    28   6 C    3.983 --    29 C    1.449    27 C    1.400    55 H    0.962
                            25 C    0.104
    29   6 C    3.982 --    28 C    1.449    24 C    1.406    56 H    0.964
                            26 C    0.103
    30   8 O    1.823 --    23 S    1.526    31 O    0.101
    31   8 O    1.826 --    23 S    1.536    30 O    0.101
    32   6 C    3.983 --    27 C    1.030    58 H    0.977    57 H    0.973
                            59 H    0.957
    33   1 H    0.926 --     2 N    0.863
    34   1 H    0.992 --     4 C    0.965
    35   1 H    0.994 --     4 C    0.968
    36   1 H    0.985 --     5 C    0.954
    37   1 H    0.983 --     5 C    0.947
    38   1 H    0.996 --     7 C    0.965
    39   1 H    0.997 --     8 C    0.969
    40   1 H    0.998 --     9 C    0.972
    41   1 H    0.998 --    10 C    0.963
    42   1 H    0.999 --    11 C    0.969
    43   1 H    0.993 --    15 C    0.979
    44   1 H    0.993 --    15 C    0.982
    45   1 H    0.996 --    15 C    0.982
    46   1 H    0.998 --    16 C    0.957
    47   1 H    0.997 --    16 C    0.954
    48   1 H    0.992 --    18 C    0.969
    49   1 H    0.986 --    18 C    0.959
    50   1 H    0.989 --    20 C    0.965
    51   1 H    0.992 --    20 C    0.956
    52   1 H    0.994 --    21 C    0.942
    53   1 H    0.995 --    25 C    0.964
    54   1 H    0.995 --    26 C    0.962
    55   1 H    0.993 --    28 C    0.962
    56   1 H    0.997 --    29 C    0.964
    57   1 H    0.996 --    32 C    0.973
    58   1 H    0.996 --    32 C    0.977
    59   1 H    0.991 --    32 C    0.957
    60   7 N    2.997 --    62 C    1.043    61 H    0.945   271 H    0.941
    61   1 H    0.960 --    60 N    0.945
    62   6 C    3.978 --    60 N    1.043    79 C    1.003    63 H    0.935
                            64 C    0.909
    63   1 H    0.988 --    62 C    0.935
    64   6 C    3.966 --    67 C    1.015    65 H    0.965    66 H    0.960
                            62 C    0.909
    65   1 H    0.994 --    64 C    0.965
    66   1 H    0.993 --    64 C    0.960
    67   6 C    3.975 --    77 C    1.404    68 C    1.392    64 C    1.015
    68   6 C    3.983 --    70 C    1.462    67 C    1.392    69 H    0.968
                            75 C    0.104
    69   1 H    1.000 --    68 C    0.968
    70   6 C    3.983 --    68 C    1.462    72 C    1.355    71 H    0.965
                            77 C    0.104
    71   1 H    0.999 --    70 C    0.965
    72   6 C    3.927 --    75 C    1.366    70 C    1.355    73 O    1.076
    73   8 O    2.069 --    72 C    1.076    74 H    0.810
    74   1 H    0.874 --    73 O    0.810
    75   6 C    3.978 --    77 C    1.450    72 C    1.366    76 H    0.962
                            68 C    0.104
    76   1 H    0.995 --    75 C    0.962
    77   6 C    3.982 --    75 C    1.450    67 C    1.404    78 H    0.966
                            70 C    0.104
    78   1 H    0.997 --    77 C    0.966
    79   6 C    3.891 --    80 O    1.864    62 C    1.003   272 H    0.939
    80   8 O    2.027 --    79 C    1.864
    81   7 N    2.987 --    83 C    1.028    82 H    0.946   273 H    0.945
    82   1 H    0.971 --    81 N    0.946
    83   6 C    3.975 --    81 N    1.028    99 C    0.948    85 C    0.947
                            84 H    0.947
    84   1 H    0.992 --    83 C    0.947
    85   6 C    3.978 --    88 C    1.014    86 H    0.966    87 H    0.962
                            83 C    0.947
    86   1 H    0.994 --    85 C    0.966
    87   1 H    0.994 --    85 C    0.962
    88   6 C    3.987 --    97 C    1.419    89 C    1.401    85 C    1.014
                            93 C    0.106
    89   6 C    3.988 --    91 C    1.450    88 C    1.401    90 H    0.970
                            95 C    0.112
    90   1 H    0.998 --    89 C    0.970
    91   6 C    3.991 --    89 C    1.450    93 C    1.432    92 H    0.972
                            97 C    0.111
    92   1 H    0.998 --    91 C    0.972
    93   6 C    3.987 --    95 C    1.444    91 C    1.432    94 H    0.972
                            88 C    0.106
    94   1 H    0.999 --    93 C    0.972
    95   6 C    3.990 --    93 C    1.444    97 C    1.434    96 H    0.973
                            89 C    0.112
    96   1 H    0.999 --    95 C    0.973
    97   6 C    3.988 --    95 C    1.434    88 C    1.419    98 H    0.968
                            91 C    0.111
    98   1 H    0.999 --    97 C    0.968
    99   6 C    3.935 --   100 O    1.619   101 N    1.296    83 C    0.948
   100   8 O    1.919 --    99 C    1.619   101 N    0.187
   101   7 N    3.462 --    99 C    1.296   103 C    0.986   102 H    0.908
                           100 O    0.187
   102   1 H    0.956 --   101 N    0.908
   103   6 C    3.969 --   111 C    0.997   101 N    0.986   105 C    0.950
                           104 H    0.928
   104   1 H    0.989 --   103 C    0.928
   105   6 C    3.981 --   106 H    0.973   103 C    0.950   107 H    0.944
                           108 C    0.942
   106   1 H    0.999 --   105 C    0.973
   107   1 H    0.996 --   105 C    0.944
   108   6 C    3.942 --   110 O    1.503   109 O    1.451   105 C    0.942
   109   8 O    1.827 --   108 C    1.451   110 O    0.210
   110   8 O    1.866 --   108 C    1.503   109 O    0.210
   111   6 C    3.891 --   112 O    1.890   103 C    0.997   274 H    0.934
   112   8 O    2.059 --   111 C    1.890
   113   7 N    2.982 --   115 C    1.032   275 H    0.953   114 H    0.944
   114   1 H    0.961 --   113 N    0.944
   115   6 C    3.967 --   113 N    1.032   135 C    0.971   117 C    0.961
                           116 H    0.923
   116   1 H    0.984 --   115 C    0.923
   117   6 C    3.981 --   120 C    1.002   119 H    0.972   118 H    0.966
                           115 C    0.961
   118   1 H    0.993 --   117 C    0.966
   119   1 H    0.995 --   117 C    0.972
   120   6 C    3.986 --   117 C    1.002   123 C    1.001   121 H    0.970
                           122 H    0.966
   121   1 H    0.997 --   120 C    0.970
   122   1 H    0.995 --   120 C    0.966
   123   6 C    3.952 --   120 C    1.001   126 N    0.982   125 H    0.963
                           124 H    0.957
   124   1 H    0.992 --   123 C    0.957
   125   1 H    0.989 --   123 C    0.963
   126   7 N    3.452 --   128 C    1.301   123 C    0.982   127 H    0.915
                           132 N    0.102
   127   1 H    0.943 --   126 N    0.915
   128   6 C    3.974 --   132 N    1.322   129 N    1.322   126 N    1.301
   129   7 N    3.386 --   128 C    1.322   130 H    0.913   131 H    0.873
                           132 N    0.103
   130   1 H    0.943 --   129 N    0.913
   131   1 H    0.944 --   129 N    0.873
   132   7 N    3.399 --   128 C    1.322   133 H    0.912   134 H    0.904
                           129 N    0.103   126 N    0.102
   133   1 H    0.936 --   132 N    0.912
   134   1 H    0.948 --   132 N    0.904
   135   6 C    3.866 --   136 O    1.891   115 C    0.971   276 H    0.933
   136   8 O    2.042 --   135 C    1.891
   137   7 N    2.990 --   139 C    1.013   138 H    0.954   277 H    0.948
   138   1 H    0.971 --   137 N    0.954
   139   6 C    3.965 --   137 N    1.013   157 C    0.968   140 H    0.963
                           141 C    0.950
   140   1 H    0.994 --   139 C    0.963
   141   6 C    3.964 --   144 C    1.004   142 H    0.970   143 H    0.969
                           139 C    0.950
   142   1 H    0.995 --   141 C    0.970
   143   1 H    0.995 --   141 C    0.969
   144   6 C    3.992 --   147 C    1.005   141 C    1.004   145 H    0.975
                           146 H    0.973
   145   1 H    0.998 --   144 C    0.975
   146   1 H    0.998 --   144 C    0.973
   147   6 C    3.986 --   150 C    1.012   144 C    1.005   149 H    0.969
                           148 H    0.969
   148   1 H    0.994 --   147 C    0.969
   149   1 H    0.996 --   147 C    0.969
   150   6 C    3.923 --   147 C    1.012   152 H    0.965   151 H    0.965
                           153 N    0.964
   151   1 H    0.988 --   150 C    0.965
   152   1 H    0.988 --   150 C    0.965
   153   7 N    3.646 --   150 C    0.964   154 H    0.892   155 H    0.886
                           156 H    0.886
   154   1 H    0.905 --   153 N    0.892
   155   1 H    0.903 --   153 N    0.886
   156   1 H    0.904 --   153 N    0.886
   157   6 C    3.877 --   158 O    1.915   139 C    0.968   278 H    0.936
   158   8 O    2.053 --   157 C    1.915
   159   7 N    2.990 --   161 C    1.035   160 H    0.947   279 H    0.946
   160   1 H    0.963 --   159 N    0.947
   161   6 C    3.971 --   159 N    1.035   163 C    0.967   162 H    0.946
                           177 C    0.925
   162   1 H    0.988 --   161 C    0.946
   163   6 C    3.982 --   166 C    1.010   164 H    0.968   161 C    0.967
                           165 H    0.944
   164   1 H    0.996 --   163 C    0.968
   165   1 H    0.988 --   163 C    0.944
   166   6 C    3.985 --   175 C    1.413   167 C    1.404   163 C    1.010
                           171 C    0.109
   167   6 C    3.988 --   169 C    1.445   166 C    1.404   168 H    0.968
                           173 C    0.112
   168   1 H    0.999 --   167 C    0.968
   169   6 C    3.990 --   167 C    1.445   171 C    1.435   170 H    0.971
                           175 C    0.109
   170   1 H    0.999 --   169 C    0.971
   171   6 C    3.989 --   173 C    1.437   169 C    1.435   172 H    0.971
                           166 C    0.109
   172   1 H    0.999 --   171 C    0.971
   173   6 C    3.988 --   175 C    1.437   171 C    1.437   174 H    0.970
                           167 C    0.112
   174   1 H    0.999 --   173 C    0.970
   175   6 C    3.985 --   173 C    1.437   166 C    1.413   176 H    0.961
                           169 C    0.109
   176   1 H    0.996 --   175 C    0.961
   177   6 C    3.915 --   178 O    1.621   179 N    1.298   161 C    0.925
   178   8 O    1.924 --   177 C    1.621   179 N    0.195
   179   7 N    3.469 --   177 C    1.298   181 C    0.983   180 H    0.922
                           178 O    0.195
   180   1 H    0.958 --   179 N    0.922
   181   6 C    3.964 --   179 N    0.983   183 C    0.958   182 H    0.949
                           199 C    0.945
   182   1 H    0.995 --   181 C    0.949
   183   6 C    3.982 --   186 C    1.009   185 H    0.971   184 H    0.968
                           181 C    0.958
   184   1 H    0.993 --   183 C    0.968
   185   1 H    0.997 --   183 C    0.971
   186   6 C    3.992 --   183 C    1.009   189 C    1.003   187 H    0.977
                           188 H    0.970
   187   1 H    0.998 --   186 C    0.977
   188   1 H    0.994 --   186 C    0.970
   189   6 C    3.987 --   192 C    1.008   186 C    1.003   191 H    0.977
                           190 H    0.965
   190   1 H    0.993 --   189 C    0.965
   191   1 H    0.997 --   189 C    0.977
   192   6 C    3.920 --   189 C    1.008   193 H    0.968   195 N    0.968
                           194 H    0.959
   193   1 H    0.989 --   192 C    0.968
   194   1 H    0.982 --   192 C    0.959
   195   7 N    3.640 --   192 C    0.968   198 H    0.892   197 H    0.881
                           196 H    0.880
   196   1 H    0.904 --   195 N    0.880
   197   1 H    0.895 --   195 N    0.881
   198   1 H    0.910 --   195 N    0.892
   199   6 C    3.945 --   200 O    1.635   201 N    1.297   181 C    0.945
   200   8 O    1.946 --   199 C    1.635   201 N    0.196
   201   7 N    3.469 --   199 C    1.297   203 C    0.984   202 H    0.916
                           200 O    0.196
   202   1 H    0.952 --   201 N    0.916
   203   6 C    3.976 --   219 C    0.999   201 N    0.984   204 H    0.940
                           205 C    0.938
   204   1 H    0.993 --   203 C    0.940
   205   6 C    3.983 --   208 C    1.006   207 H    0.964   206 H    0.958
                           203 C    0.938
   206   1 H    0.994 --   205 C    0.958
   207   1 H    0.998 --   205 C    0.964
   208   6 C    3.987 --   217 C    1.413   209 C    1.409   205 C    1.006
                           213 C    0.110
   209   6 C    3.991 --   211 C    1.448   208 C    1.409   210 H    0.969
                           215 C    0.110
   210   1 H    0.999 --   209 C    0.969
   211   6 C    3.990 --   209 C    1.448   213 C    1.430   212 H    0.972
                           217 C    0.112
   212   1 H    0.998 --   211 C    0.972
   213   6 C    3.987 --   215 C    1.442   211 C    1.430   214 H    0.971
                           208 C    0.110
   214   1 H    0.998 --   213 C    0.971
   215   6 C    3.987 --   213 C    1.442   217 C    1.436   216 H    0.968
                           209 C    0.110
   216   1 H    0.997 --   215 C    0.968
   217   6 C    3.989 --   215 C    1.436   208 C    1.413   218 H    0.967
                           211 C    0.112
   218   1 H    0.999 --   217 C    0.967
   219   6 C    3.895 --   220 O    1.887   203 C    0.999   280 H    0.941
   220   8 O    2.053 --   219 C    1.887
   221   7 N    3.012 --   223 C    1.025   222 H    0.949   281 H    0.948
   222   1 H    0.968 --   221 N    0.949
   223   6 C    3.979 --   221 N    1.025   225 C    0.974   234 C    0.943
                           224 H    0.939
   224   1 H    0.991 --   223 C    0.939
   225   6 C    3.991 --   228 C    1.009   226 H    0.977   223 C    0.974
                           227 H    0.972
   226   1 H    0.997 --   225 C    0.977
   227   1 H    0.998 --   225 C    0.972
   228   6 C    3.992 --   225 C    1.009   229 H    0.965   230 H    0.961
                           231 C    0.941
   229   1 H    0.999 --   228 C    0.965
   230   1 H    0.998 --   228 C    0.961
   231   6 C    3.930 --   232 O    1.483   233 O    1.479   228 C    0.941
   232   8 O    1.750 --   231 C    1.483   233 O    0.201
   233   8 O    1.757 --   231 C    1.479   232 O    0.201
   234   6 C    3.941 --   235 O    1.610   236 N    1.305   223 C    0.943
   235   8 O    1.913 --   234 C    1.610   236 N    0.194
   236   7 N    3.475 --   234 C    1.305   238 C    0.989   237 H    0.899
                           235 O    0.194
   237   1 H    0.952 --   236 N    0.899
   238   6 C    3.969 --   250 C    0.993   236 N    0.989   239 H    0.939
                           240 C    0.927
   239   1 H    0.992 --   238 C    0.939
   240   6 C    3.986 --   246 C    1.009   242 C    1.002   241 H    0.966
                           238 C    0.927
   241   1 H    0.996 --   240 C    0.966
   242   6 C    3.993 --   240 C    1.002   243 H    0.981   244 H    0.978
                           245 H    0.978
   243   1 H    0.998 --   242 C    0.981
   244   1 H    0.999 --   242 C    0.978
   245   1 H    0.996 --   242 C    0.978
   246   6 C    3.992 --   240 C    1.009   247 H    0.984   249 H    0.982
                           248 H    0.982
   247   1 H    0.998 --   246 C    0.984
   248   1 H    0.997 --   246 C    0.982
   249   1 H    0.997 --   246 C    0.982
   250   6 C    3.894 --   251 O    1.892   238 C    0.993   282 H    0.934
   251   8 O    2.059 --   250 C    1.892
   252   7 N    2.986 --   254 C    1.016   253 H    0.953   283 H    0.941
   253   1 H    0.968 --   252 N    0.953
   254   6 C    3.972 --   252 N    1.016   269 C    0.986   255 H    0.946
                           256 C    0.939
   255   1 H    0.986 --   254 C    0.946
   256   6 C    3.977 --   258 C    1.005   262 C    0.995   257 H    0.960
                           254 C    0.939
   257   1 H    0.996 --   256 C    0.960
   258   6 C    3.990 --   256 C    1.005   261 H    0.988   259 H    0.985
                           260 H    0.979
   259   1 H    0.997 --   258 C    0.985
   260   1 H    0.996 --   258 C    0.979
   261   1 H    0.999 --   258 C    0.988
   262   6 C    3.996 --   265 C    1.018   256 C    0.995   263 H    0.978
                           264 H    0.974
   263   1 H    0.999 --   262 C    0.978
   264   1 H    0.997 --   262 C    0.974
   265   6 C    3.994 --   262 C    1.018   267 H    0.988   266 H    0.983
                           268 H    0.983
   266   1 H    0.998 --   265 C    0.983
   267   1 H    0.999 --   265 C    0.988
   268   1 H    0.998 --   265 C    0.983
   269   6 C    3.875 --   270 O    1.890   254 C    0.986   284 H    0.939
   270   8 O    2.027 --   269 C    1.890
   271   1 H    0.954 --    60 N    0.941
   272   1 H    0.995 --    79 C    0.939
   273   1 H    0.959 --    81 N    0.945
   274   1 H    0.993 --   111 C    0.934
   275   1 H    0.967 --   113 N    0.953
   276   1 H    0.992 --   135 C    0.933
   277   1 H    0.965 --   137 N    0.948
   278   1 H    0.990 --   157 C    0.936
   279   1 H    0.961 --   159 N    0.946
   280   1 H    0.995 --   219 C    0.941
Note: The following floating-point exceptions are signalling: IEEE_UNDERFLOW_FLAG IEEE_DENORMAL
normal termination of xtb
   281   1 H    0.965 --   221 N    0.948
   282   1 H    0.994 --   250 C    0.934
   283   1 H    0.957 --   252 N    0.941
   284   1 H    0.996 --   269 C    0.939
 ---------------------------------------------------------------------------

Topologies differ in total number of bonds
Writing topology from bond orders to xtbtopo.mol

molecular dipole:
                 x           y           z       tot (Debye)
 q only:       85.061      90.403     161.369
   full:       87.645      92.276     160.241     520.119
molecular quadrupole (traceless):
                xx          xy          yy          xz          yz          zz
 q only:    -5263.829    5115.586   -4313.399   10122.913   10922.302    9577.228
  q+dip:    -4964.296    5516.814   -4190.643   10321.096   11059.109    9154.939
   full:    -4955.059    5519.666   -4194.055   10320.050   11058.121    9149.114


           -------------------------------------------------
          | TOTAL ENERGY             -425.730111845910 Eh   |
          | GRADIENT NORM               0.332328692816 Eh/α |
          | HOMO-LUMO GAP               0.312475596166 eV   |
           -------------------------------------------------

------------------------------------------------------------------------
 * finished run on 2026/01/05 at 09:07:54.517     
------------------------------------------------------------------------
 total:
 * wall-time:     0 d,  0 h,  0 min,  4.031 sec
 *  cpu-time:     0 d,  0 h,  0 min, 58.407 sec
 * ratio c/w:    14.489 speedup
 SCF:
 * wall-time:     0 d,  0 h,  0 min,  3.929 sec
 *  cpu-time:     0 d,  0 h,  0 min, 56.974 sec
 * ratio c/w:    14.501 speedup

