      -----------------------------------------------------------      
     |                   =====================                   |     
     |                           x T B                           |     
     |                   =====================                   |     
     |                         S. Grimme                         |     
     |          Mulliken Center for Theoretical Chemistry        |     
     |                    University of Bonn                     |     
      -----------------------------------------------------------      

   * xtb version 6.7.1 (edcfbbe) compiled by 'conda@c0858423619e' on 2025-09-04

   xtb is free software: you can redistribute it and/or modify it under
   the terms of the GNU Lesser General Public License as published by
   the Free Software Foundation, either version 3 of the License, or
   (at your option) any later version.
   
   xtb is distributed in the hope that it will be useful,
   but WITHOUT ANY WARRANTY; without even the implied warranty of
   MERCHANTABILITY or FITNESS FOR A PARTICULAR PURPOSE.  See the
   GNU Lesser General Public License for more details.
   
   Cite this work as:
   * C. Bannwarth, E. Caldeweyher, S. Ehlert, A. Hansen, P. Pracht,
     J. Seibert, S. Spicher, S. Grimme, WIREs Comput. Mol. Sci., 2020, 11,
     e01493. DOI: 10.1002/wcms.1493
   
   for GFN2-xTB:
   * C. Bannwarth, S. Ehlert and S. Grimme., J. Chem. Theory Comput., 2019,
     15, 1652-1671. DOI: 10.1021/acs.jctc.8b01176
   for GFN1-xTB:
   * S. Grimme, C. Bannwarth, P. Shushkov, J. Chem. Theory Comput., 2017,
     13, 1989-2009. DOI: 10.1021/acs.jctc.7b00118
   for GFN0-xTB:
   * P. Pracht, E. Caldeweyher, S. Ehlert, S. Grimme, ChemRxiv, 2019, preprint.
     DOI: 10.26434/chemrxiv.8326202.v1
   for GFN-FF:
   * S. Spicher and S. Grimme, Angew. Chem. Int. Ed., 2020, 59, 15665-15673.
     DOI: 10.1002/anie.202004239
   
   for ALPB and GBSA implicit solvation:
   * S. Ehlert, M. Stahn, S. Spicher, S. Grimme, J. Chem. Theory Comput.,
     2021, 17, 4250-4261. DOI: 10.1021/acs.jctc.1c00471
   
   for ddCOSMO and CPCM-X implicit solvation:
   * M. Stahn, S. Ehlert, S. Grimme, J. Phys. Chem. A,
     2023, XX, XXXX-XXXX. DOI: 10.1021/acs.jpca.3c04382
   
   for DFT-D4:
   * E. Caldeweyher, C. Bannwarth and S. Grimme, J. Chem. Phys., 2017,
     147, 034112. DOI: 10.1063/1.4993215
   * E. Caldeweyher, S. Ehlert, A. Hansen, H. Neugebauer, S. Spicher,
     C. Bannwarth and S. Grimme, J. Chem. Phys., 2019, 150, 154122.
     DOI: 10.1063/1.5090222
   * E. Caldeweyher, J.-M. Mewes, S. Ehlert and S. Grimme, Phys. Chem. Chem. Phys.
     2020, 22, 8499-8512. DOI: 10.1039/D0CP00502A
   
   for sTDA-xTB:
   * S. Grimme and C. Bannwarth, J. Chem. Phys., 2016, 145, 054103.
     DOI: 10.1063/1.4959605
   
   in the mass-spec context:
   * V. Asgeirsson, C. Bauer and S. Grimme, Chem. Sci., 2017, 8, 4879.
     DOI: 10.1039/c7sc00601b
   * J. Koopman and S. Grimme, ACS Omega 2019, 4, 12, 15120-15133.
     DOI: 10.1021/acsomega.9b02011
   
   for metadynamics refer to:
   * S. Grimme, J. Chem. Theory Comput., 2019, 155, 2847-2862
     DOI: 10.1021/acs.jctc.9b00143
   
   for SPH calculations refer to:
   * S. Spicher and S. Grimme, J. Chem. Theory Comput., 2021, 17, 1701-1714
     DOI: 10.1021/acs.jctc.0c01306
   
   for ONIOM refer to:
   * C. Plett, A. Katbashev, S. Ehlert, S. Grimme, M. Bursch,
     Phys. Chem. Chem. Phys., 2023, 25, 17860-17868. DOI: 10.1039/D3CP02178E
   
   for DIPRO refer to:
   * J. Kohn, N. Gildemeister, S. Grimme, D. Fazzi, A. Hansen,
     J. Chem. Phys., 2023, just accepted.
   
   for PTB refer to:
   * S. Grimme, M. Mueller, A. Hansen, J. Chem. Phys., 2023, 158, 124111.
     DOI: 10.1063/5.0137838
   
   with help from (in alphabetical order)
   P. Atkinson, C. Bannwarth, F. Bohle, G. Brandenburg, E. Caldeweyher
   M. Checinski, S. Dohm, S. Ehlert, S. Ehrlich, I. Gerasimov, C. Hölzer
   A. Katbashev, J. Kohn, J. Koopman, C. Lavigne, S. Lehtola, F. März, M. Müller,
   F. Musil, H. Neugebauer, J. Pisarek, C. Plett, P. Pracht, F. Pultar,
   J. Seibert, P. Shushkov, S. Spicher, M. Stahn, M. Steiner, T. Strunk,
   J. Stückrath, T. Rose, and J. Unsleber
   
 * started run on 2026/01/05 at 09:07:18.918     
   ID    Z sym.   atoms
    1    6 C      1, 3-11, 14-16, 18, 20, 21, 24-29, 32, 62, 64, 67, 68, 70,
                  72, 74, 76, 78, 82, 84, 87, 90, 94, 96, 99, 102, 107, 111,
                  113, 116, 119, 122, 126, 128, 130, 134, 138, 142, 144, 146,
                  150, 153, 157, 161, 163, 166, 167, 169, 171, 174, 176, 178,
                  182, 184, 187, 189, 193, 195, 199, 201, 203, 207, 210, 214,
                  218, 220, 222, 226, 229, 233
    2    7 N      2, 22, 60, 80, 92, 104, 109, 124, 140, 159, 180, 188, 191,
                  197, 216
    3    8 O      12, 13, 17, 30, 31, 79, 88, 89, 91, 103, 108, 120, 121,
                  123, 139, 158, 172, 179, 196, 215, 234
    4   16 S      19, 23
    5    1 H      33-59, 61, 63, 65, 66, 69, 71, 73, 75, 77, 81, 83, 85, 86,
                  93, 95, 97, 98, 100, 101, 105, 106, 110, 112, 114, 115,
                  117, 118, 125, 127, 129, 131-133, 135-137, 141, 143, 145,
                  147-149, 151, 152, 154-156, 160, 162, 164, 165, 168, 170,
                  173, 175, 177, 181, 183, 185, 186, 190, 192, 194, 198, 200,
                  202, 204-206, 208, 209, 211-213, 217, 219, 221, 223-225,
                  227, 228, 230-232, 235-244

           -------------------------------------------------
          |                Calculation Setup                |
           -------------------------------------------------

          program call               : xtb /home/antonio_mesquita/Documentos/gmx_ISA_project/testes_arquivos_primeiros/gmx_ISA_testes/testes_qm_xtb/QM_analysis/QM_FRAMES_CAPPED/frame_3600ps/complex_capped_3600ps.xyz --gfn 2 --alpb water --chrg -1 --etemp 1500 --cycles 1000
          coordinate file            : /home/antonio_mesquita/Documentos/gmx_ISA_project/testes_arquivos_primeiros/gmx_ISA_testes/testes_qm_xtb/QM_analysis/QM_FRAMES_CAPPED/frame_3600ps/complex_capped_3600ps.xyz
          omp threads                :                    16


molecular fragmentation (1/2 indicates fragments):
111111111111111111111111111111111111111111111111111111111112222222222222
222222222222222222222222222222222222222222222222222222222222222222222222
222222222222222222222222222222222222222222222222222222222222222222222222
2222222222222222222222222222
# atoms in fragment 1/2:    59   185
 fragment masses (1/2) :      475.60     1266.49
CMA distance (Bohr)    :   9.784
constraining FC (au)   :  0.0500

           -------------------------------------------------
          |                 G F N 2 - x T B                 |
           -------------------------------------------------

        Reference                      10.1021/acs.jctc.8b01176
      * Hamiltonian:
        H0-scaling (s, p, d)           1.850000    2.230000    2.230000
        zeta-weighting                 0.500000
      * Dispersion:
        s8                             2.700000
        a1                             0.520000
        a2                             5.000000
        s9                             5.000000
      * Repulsion:
        kExp                           1.500000    1.000000
        rExp                           1.000000
      * Coulomb:
        alpha                          2.000000
        third order                    shell-resolved
        anisotropic                    true
        a3                             3.000000
        a5                             4.000000
        cn-shift                       1.200000
        cn-exp                         4.000000
        max-rad                        5.000000

      * Solvation model:               ALPB
        Solvent                        water
        Parameter file                 internal GFN2-xTB/ALPB
        Dielectric constant                8.0200E+01
        Reference state                gsolv [1 M gas/solution]
        Free energy shift                  1.0808E-03 Eh       6.7819E-01 kcal/mol
        Temperature                        2.9815E+02 K
        Density                            1.0000E+00 kg/L
        Solvent mass                       1.8000E+01 g/mol
        Interaction kernel             P16
        Born radius scaling (c1)           1.4744E+00
        Born radii integrator          GBOBC
        Born offset                        0.0000E+00 a0       0.0000E+00 AA
        H-bond correction              true
        Ion screening                  false
        Surface tension                    1.0000E-05 Eh       1.5569E+01 dyn/cm
        Grid points                               230 per atom

          ...................................................
          :                      SETUP                      :
          :.................................................:
          :  # basis functions                 622          :
          :  # atomic orbitals                 620          :
          :  # shells                          368          :
          :  # electrons                       672          :
          :  max. iterations                   250          :
          :  Hamiltonian                  GFN2-xTB          :
          :  restarted?                      false          :
          :  GBSA solvation                   true          :
          :  PC potential                    false          :
          :  electronic temp.         1500.0000000     K    :
          :  accuracy                    1.0000000          :
          :  -> integral cutoff          0.2500000E+02      :
          :  -> integral neglect         0.1000000E-07      :
          :  -> SCF convergence          0.1000000E-05 Eh   :
          :  -> wf. convergence          0.1000000E-03 e    :
          :  Broyden damping             0.4000000          :
          :  net charge                         -1          :
          :  unpaired electrons                  0          :
          ...................................................

 iter      E             dE          RMSdq      gap      omega  full diag
   1   -381.5437239 -0.381544E+03  0.452E+00    0.02       0.0  T
   2   -382.2447283 -0.701004E+00  0.259E+00    1.57       1.0  T
   3   -382.1416798  0.103049E+00  0.178E+00    0.08       1.0  T
   4   -382.4236660 -0.281986E+00  0.933E-01    0.31       1.0  T
   5   -382.4682424 -0.445764E-01  0.624E-01    0.01       1.0  T
   6   -382.5306736 -0.624313E-01  0.354E-01    0.45       1.0  T
   7   -382.4906177  0.400560E-01  0.518E-01    0.06       1.0  T
   8   -382.5500608 -0.594432E-01  0.214E-01    0.12       1.0  T
   9   -382.5588185 -0.875762E-02  0.114E-01    0.22       1.0  T
  10   -382.5569659  0.185258E-02  0.127E-01    0.33       1.0  T
  11   -382.5604828 -0.351690E-02  0.568E-02    0.26       1.0  T
  12   -382.5610892 -0.606390E-03  0.253E-02    0.26       1.0  T
  13   -382.5610890  0.194769E-06  0.236E-02    0.24       1.0  T
  14   -382.5611589 -0.699530E-04  0.158E-02    0.24       1.0  T
  15   -382.5612144 -0.554698E-04  0.519E-03    0.25       1.2  T
  16   -382.5612170 -0.255845E-05  0.312E-03    0.25       2.1  T
  17   -382.5612191 -0.212495E-05  0.966E-04    0.25       6.6  T
  18   -382.5612193 -0.174491E-06  0.359E-04    0.25      17.8  T
  19   -382.5612193 -0.846273E-08  0.234E-04    0.25      27.4  T

   *** convergence criteria satisfied after 19 iterations ***

         #    Occupation            Energy/Eh            Energy/eV
      -------------------------------------------------------------
         1        2.0000           -0.7982846             -21.7224
       ...           ...                  ...                  ...
       330        1.9549           -0.3686708             -10.0320
       331        1.9381           -0.3671332              -9.9902
       332        1.9132           -0.3654656              -9.9448
       333        1.8403           -0.3623836              -9.8610
       334        1.8352           -0.3622201              -9.8565
       335        1.7999           -0.3612062              -9.8289
       336        1.7566           -0.3601596              -9.8004 (HOMO)
       337        1.0134           -0.3508984              -9.5484 (LUMO)
       338        0.0001           -0.3011630              -8.1951
       339        0.0000           -0.2976910              -8.1006
       340        0.0000           -0.2969363              -8.0800
       341        0.0000           -0.2933547              -7.9826
       ...           ...                  ...                  ...
       620                          1.0660836              29.0096
      -------------------------------------------------------------
                  HL-Gap            0.0092612 Eh            0.2520 eV
             Fermi-level           -0.3507715 Eh           -9.5450 eV

 SCC (total)                   0 d,  0 h,  0 min,  2.539 sec
 SCC setup                      ...        0 min,  0.023 sec (  0.889%)
 Dispersion                     ...        0 min,  0.028 sec (  1.105%)
 classical contributions        ...        0 min,  0.004 sec (  0.146%)
 integral evaluation            ...        0 min,  0.050 sec (  1.952%)
 iterations                     ...        0 min,  2.208 sec ( 86.951%)
 molecular gradient             ...        0 min,  0.221 sec (  8.701%)
 printout                       ...        0 min,  0.006 sec (  0.254%)

         :::::::::::::::::::::::::::::::::::::::::::::::::::::
         ::                     SUMMARY                     ::
         :::::::::::::::::::::::::::::::::::::::::::::::::::::
         :: total energy            -377.981585089014 Eh    ::
         :: total w/o Gsasa/hb      -377.960921532170 Eh    ::
         :: gradient norm              0.304609395948 Eh/a0 ::
         :: HOMO-LUMO gap              0.252009647787 eV    ::
         ::.................................................::
         :: SCC energy              -382.543722099278 Eh    ::
         :: -> isotropic ES            1.150596173660 Eh    ::
         :: -> anisotropic ES         -0.022802558495 Eh    ::
         :: -> anisotropic XC          0.148036751437 Eh    ::
         :: -> dispersion             -0.297153465174 Eh    ::
         :: -> Gsolv                  -0.327154568269 Eh    ::
         ::    -> Gelec               -0.306491011426 Eh    ::
         ::    -> Gsasa                0.013943082181 Eh    ::
         ::    -> Ghb                 -0.035687398723 Eh    ::
         ::    -> Gshift               0.001080759698 Eh    ::
         :: repulsion energy           4.562137010264 Eh    ::
         :: add. restraining           0.000000000000 Eh    ::
         :: total charge              -0.999999999526 e     ::
         :::::::::::::::::::::::::::::::::::::::::::::::::::::

           -------------------------------------------------
          |                Property Printout                |
           -------------------------------------------------

    * Orbital Energies and Occupations

         #    Occupation            Energy/Eh            Energy/eV
      -------------------------------------------------------------
         1        2.0000           -0.7982846             -21.7224
       ...           ...                  ...                  ...
       324        1.9992           -0.3879975             -10.5579
       325        1.9968           -0.3813681             -10.3776
       326        1.9961           -0.3804004             -10.3512
       327        1.9905           -0.3761639             -10.2359
       328        1.9841           -0.3737036             -10.1690
       329        1.9828           -0.3733144             -10.1584
       330        1.9549           -0.3686708             -10.0320
       331        1.9381           -0.3671332              -9.9902
       332        1.9132           -0.3654656              -9.9448
       333        1.8403           -0.3623836              -9.8610
       334        1.8352           -0.3622201              -9.8565
       335        1.7999           -0.3612062              -9.8289
       336        1.7566           -0.3601596              -9.8004 (HOMO)
       337        1.0134           -0.3508984              -9.5484 (LUMO)
       338        0.0001           -0.3011630              -8.1951
       339        0.0000           -0.2976910              -8.1006
       340        0.0000           -0.2969363              -8.0800
       341        0.0000           -0.2933547              -7.9826
       342        0.0000           -0.2855638              -7.7706
       343                         -0.2602720              -7.0824
       344                         -0.2535785              -6.9002
       345                         -0.2470565              -6.7228
       346                         -0.2334279              -6.3519
       347                         -0.2312368              -6.2923
       ...                                ...                  ...
       620                          1.0660836              29.0096
      -------------------------------------------------------------
                  HL-Gap            0.0092612 Eh            0.2520 eV
             Fermi-level           -0.3507715 Eh           -9.5450 eV

     #   Z          covCN         q      C6AA      α(0)
     1   6 C        2.742     0.264    22.550     7.775
     2   7 N        2.691    -0.117    23.559     7.209
     3   6 C        2.875     0.035    27.211     8.551
     4   6 C        3.693     0.092    19.234     6.275
     5   6 C        3.805    -0.068    21.796     6.646
     6   6 C        2.957     0.021    27.533     8.606
     7   6 C        2.928    -0.039    28.967     8.826
     8   6 C        2.901    -0.039    28.980     8.827
     9   6 C        2.919    -0.034    28.856     8.809
    10   6 C        2.901    -0.026    28.646     8.776
    11   6 C        2.923    -0.025    28.637     8.776
    12   8 O        1.705    -0.289    18.808     5.855
    13   8 O        0.856    -0.491    23.581     6.511
    14   6 C        2.715     0.334    21.324     7.559
    15   6 C        3.746    -0.122    22.917     6.829
    16   6 C        3.837     0.013    20.335     6.415
    17   8 O        0.862    -0.465    23.028     6.434
    18   6 C        3.788    -0.027    21.077     6.539
    19  16 S        1.984    -0.199   149.537    20.582
    20   6 C        3.793    -0.032    21.158     6.550
    21   6 C        3.865     0.035    19.953     6.352
    22   7 N        2.730    -0.293    27.547     7.795
    23  16 S        3.796     1.188   101.420    16.950
    24   6 C        2.950    -0.093    30.325     9.032
    25   6 C        2.960    -0.028    28.695     8.786
    26   6 C        2.912    -0.032    28.794     8.799
    27   6 C        2.961     0.033    27.270     8.565
    28   6 C        2.918    -0.038    28.940     8.822
    29   6 C        2.935    -0.026    28.658     8.780
    30   8 O        0.860    -0.645    27.252     6.999
    31   8 O        0.860    -0.646    27.273     7.002
    32   6 C        3.752    -0.118    22.821     6.812
    33   1 H        0.860     0.221     1.004     1.570
    34   1 H        0.924     0.035     2.523     2.484
    35   1 H        0.924     0.049     2.329     2.386
    36   1 H        0.924     0.089     1.892     2.151
    37   1 H        0.924     0.097     1.810     2.104
    38   1 H        0.925     0.040     2.447     2.446
    39   1 H        0.925     0.061     2.191     2.315
    40   1 H        0.924     0.043     2.416     2.431
    41   1 H        0.925     0.032     2.553     2.499
    42   1 H        0.924     0.022     2.699     2.569
    43   1 H        0.924     0.064     2.156     2.296
    44   1 H        0.924     0.069     2.093     2.262
    45   1 H        0.923     0.051     2.308     2.376
    46   1 H        0.924     0.039     2.459     2.452
    47   1 H        0.924     0.068     2.109     2.271
    48   1 H        0.923     0.079     1.988     2.205
    49   1 H        0.924     0.090     1.880     2.144
    50   1 H        0.924     0.103     1.762     2.076
    51   1 H        0.924     0.082     1.960     2.190
    52   1 H        0.923     0.101     1.773     2.083
    53   1 H        0.925     0.060     2.200     2.319
    54   1 H        0.926     0.061     2.184     2.311
    55   1 H        0.924     0.088     1.897     2.154
    56   1 H        0.925     0.068     2.106     2.269
    57   1 H        0.923     0.041     2.433     2.439
    58   1 H        0.925     0.079     1.991     2.207
    59   1 H        0.924     0.082     1.957     2.188
    60   7 N        2.633    -0.332    28.556     7.936
    61   1 H        0.860     0.178     1.226     1.735
    62   6 C        3.787     0.030    20.077     6.382
    63   1 H        0.925     0.084     1.941     2.178
    64   6 C        3.813    -0.072    21.871     6.656
    65   1 H        0.924     0.073     2.056     2.242
    66   1 H        0.924     0.059     2.208     2.324
    67   6 C        2.956     0.016    27.645     8.624
    68   6 C        2.926    -0.036    28.896     8.815
    69   1 H        0.925     0.051     2.306     2.375
    70   6 C        2.906    -0.042    29.037     8.836
    71   1 H        0.926     0.058     2.224     2.332
    72   6 C        2.917    -0.042    29.033     8.836
    73   1 H        0.925     0.036     2.499     2.472
    74   6 C        2.907    -0.038    28.945     8.822
    75   1 H        0.925     0.021     2.723     2.580
    76   6 C        2.920    -0.038    28.955     8.824
    77   1 H        0.925     0.013     2.849     2.640
    78   6 C        2.756     0.272    22.410     7.752
    79   8 O        0.860    -0.521    24.259     6.604
    80   7 N        2.702    -0.158    24.415     7.339
    81   1 H        0.860     0.220     1.009     1.573
    82   6 C        3.799     0.046    19.811     6.337
    83   1 H        0.924     0.084     1.934     2.175
    84   6 C        3.830    -0.079    21.987     6.672
    85   1 H        0.925     0.059     2.209     2.324
    86   1 H        0.925     0.066     2.129     2.282
    87   6 C        2.690     0.358    20.929     7.487
    88   8 O        0.861    -0.635    27.001     6.967
    89   8 O        0.861    -0.640    27.114     6.981
    90   6 C        2.767     0.213    23.496     7.938
    91   8 O        0.857    -0.363    20.951     6.137
    92   7 N        2.634    -0.351    29.034     8.003
    93   1 H        0.860     0.194     1.135     1.669
    94   6 C        3.788     0.024    20.179     6.398
    95   1 H        0.925     0.077     2.012     2.218
    96   6 C        3.805    -0.058    21.612     6.618
    97   1 H        0.924     0.066     2.125     2.280
    98   1 H        0.924     0.049     2.330     2.387
    99   6 C        3.803    -0.094    22.297     6.723
   100   1 H        0.924     0.069     2.101     2.267
   101   1 H        0.924     0.080     1.984     2.203
   102   6 C        2.742     0.283    22.202     7.715
   103   8 O        0.869    -0.534    24.552     6.644
   104   7 N        2.645    -0.311    27.995     7.858
   105   1 H        0.860     0.234     0.950     1.527
   106   1 H        0.860     0.258     0.851     1.445
   107   6 C        2.752     0.269    22.455     7.759
   108   8 O        0.861    -0.515    24.108     6.583
   109   7 N        2.703    -0.173    24.741     7.387
   110   1 H        0.860     0.215     1.030     1.590
   111   6 C        3.799     0.031    20.057     6.377
   112   1 H        0.924     0.081     1.967     2.193
   113   6 C        3.821    -0.044    21.342     6.574
   114   1 H        0.924     0.035     2.511     2.478
   115   1 H        0.924     0.051     2.309     2.376
   116   6 C        3.803    -0.092    22.256     6.716
   117   1 H        0.925     0.053     2.280     2.361
   118   1 H        0.924     0.038     2.473     2.459
   119   6 C        2.688     0.363    20.838     7.471
   120   8 O        0.857    -0.658    27.589     7.042
   121   8 O        0.857    -0.643    27.195     6.992
   122   6 C        2.750     0.275    22.350     7.741
   123   8 O        0.858    -0.514    24.092     6.581
   124   7 N        2.689    -0.152    24.280     7.318
   125   1 H        0.860     0.207     1.072     1.622
   126   6 C        3.791     0.025    20.160     6.394
   127   1 H        0.925     0.073     2.050     2.239
   128   6 C        3.855    -0.022    20.932     6.507
   129   1 H        0.926     0.059     2.214     2.327
   130   6 C        3.764    -0.131    23.061     6.845
   131   1 H        0.925     0.078     1.998     2.210
   132   1 H        0.924     0.042     2.427     2.436
   133   1 H        0.925     0.052     2.292     2.367
   134   6 C        3.762    -0.116    22.775     6.803
   135   1 H        0.924     0.038     2.481     2.463
   136   1 H        0.925     0.033     2.542     2.493
   137   1 H        0.924     0.063     2.168     2.302
   138   6 C        2.758     0.275    22.355     7.743
   139   8 O        0.860    -0.514    24.104     6.583
   140   7 N        2.687    -0.163    24.528     7.355
   141   1 H        0.860     0.216     1.026     1.587
   142   6 C        3.799     0.033    20.017     6.370
   143   1 H        0.924     0.087     1.908     2.160
   144   6 C        3.860    -0.020    20.885     6.499
   145   1 H        0.925     0.064     2.149     2.292
   146   6 C        3.753    -0.123    22.923     6.827
   147   1 H        0.925     0.048     2.347     2.396
   148   1 H        0.924     0.068     2.108     2.270
   149   1 H        0.924     0.056     2.244     2.343
   150   6 C        3.805    -0.062    21.688     6.630
   151   1 H        0.925     0.040     2.453     2.449
   152   1 H        0.925     0.033     2.541     2.493
   153   6 C        3.752    -0.124    22.945     6.831
   154   1 H        0.925     0.060     2.193     2.316
   155   1 H        0.925     0.046     2.373     2.409
   156   1 H        0.924     0.052     2.298     2.370
   157   6 C        2.759     0.201    23.716     7.975
   158   8 O        0.856    -0.388    21.436     6.207
   159   7 N        2.637    -0.329    28.468     7.924
   160   1 H        0.860     0.188     1.171     1.695
   161   6 C        3.785     0.045    19.838     6.344
   162   1 H        0.924     0.093     1.847     2.125
   163   6 C        3.814    -0.075    21.931     6.665
   164   1 H        0.924     0.069     2.094     2.263
   165   1 H        0.925     0.081     1.965     2.192
   166   6 C        2.955     0.006    27.877     8.660
   167   6 C        2.924    -0.045    29.112     8.848
   168   1 H        0.926     0.044     2.394     2.419
   169   6 C        2.901    -0.073    29.808     8.952
   170   1 H        0.925     0.029     2.607     2.525
   171   6 C        2.843     0.144    24.865     8.172
   172   8 O        1.659    -0.455    21.936     6.323
   173   1 H        0.805     0.325     0.651     1.268
   174   6 C        2.904    -0.063    29.571     8.916
   175   1 H        0.926     0.060     2.199     2.319
   176   6 C        2.920    -0.042    29.053     8.839
   177   1 H        0.925     0.061     2.186     2.312
   178   6 C        2.757     0.202    23.701     7.972
   179   8 O        0.857    -0.390    21.478     6.214
   180   7 N        2.634    -0.304    27.834     7.836
   181   1 H        0.860     0.198     1.115     1.654
   182   6 C        3.784     0.042    19.884     6.352
   183   1 H        0.925     0.076     2.017     2.221
   184   6 C        3.807    -0.071    21.857     6.655
   185   1 H        0.924     0.068     2.110     2.271
   186   1 H        0.924     0.074     2.047     2.237
   187   6 C        3.040     0.058    26.665     8.470
   188   7 N        1.950    -0.309    28.830     7.962
   189   6 C        2.992     0.083    26.141     8.387
   190   1 H        0.926     0.033     2.538     2.491
   191   7 N        2.793    -0.098    23.162     7.148
   192   1 H        0.860     0.185     1.187     1.707
   193   6 C        3.021    -0.025    28.600     8.772
   194   1 H        0.926     0.056     2.247     2.344
   195   6 C        2.758     0.209    23.561     7.949
   196   8 O        0.856    -0.334    20.402     6.056
   197   7 N        2.632    -0.326    28.383     7.912
   198   1 H        0.860     0.212     1.047     1.603
   199   6 C        3.791     0.020    20.240     6.407
   200   1 H        0.924     0.069     2.095     2.263
   201   6 C        3.858    -0.024    20.963     6.511
   202   1 H        0.924     0.059     2.216     2.328
   203   6 C        3.763    -0.121    22.860     6.815
   204   1 H        0.925     0.047     2.357     2.401
   205   1 H        0.925     0.055     2.255     2.348
   206   1 H        0.924     0.042     2.418     2.432
   207   6 C        3.810    -0.058    21.608     6.617
   208   1 H        0.925     0.037     2.496     2.470
   209   1 H        0.925     0.033     2.539     2.492
   210   6 C        3.752    -0.108    22.628     6.783
   211   1 H        0.923     0.038     2.472     2.459
   212   1 H        0.924     0.039     2.466     2.456
   213   1 H        0.925     0.028     2.618     2.530
   214   6 C        2.749     0.277    22.309     7.734
   215   8 O        0.860    -0.498    23.744     6.533
   216   7 N        2.695    -0.173    24.742     7.388
   217   1 H        0.860     0.240     0.924     1.506
   218   6 C        3.797     0.025    20.164     6.394
   219   1 H        0.926     0.081     1.971     2.196
   220   6 C        3.856    -0.024    20.965     6.512
   221   1 H        0.925     0.052     2.294     2.369
   222   6 C        3.757    -0.128    23.010     6.839
   223   1 H        0.925     0.058     2.225     2.333
   224   1 H        0.924     0.060     2.194     2.316
   225   1 H        0.924     0.035     2.511     2.478
   226   6 C        3.804    -0.056    21.585     6.614
   227   1 H        0.925     0.029     2.605     2.524
   228   1 H        0.924     0.033     2.548     2.496
   229   6 C        3.749    -0.108    22.636     6.786
   230   1 H        0.924     0.038     2.476     2.461
   231   1 H        0.924     0.045     2.384     2.414
   232   1 H        0.923     0.049     2.338     2.391
   233   6 C        2.764     0.208    23.586     7.953
   234   8 O        0.856    -0.353    20.758     6.108
   235   1 H        0.860     0.218     1.019     1.582
   236   1 H        0.923     0.073     2.054     2.241
   237   1 H        0.860     0.170     1.272     1.766
   238   1 H        0.923     0.077     2.009     2.217
   239   1 H        0.860     0.194     1.137     1.671
   240   1 H        0.923     0.075     2.033     2.230
   241   1 H        0.860     0.196     1.124     1.661
   242   1 H        0.923     0.086     1.915     2.164
   243   1 H        0.860     0.216     1.029     1.589
   244   1 H        0.923     0.078     2.004     2.214

 Mol. C6AA /au·bohr⁶  :     611893.387653
 Mol. C8AA /au·bohr⁸  :   14235062.536287
 Mol. α(0) /au        :       1190.458677


Wiberg/Mayer (AO) data.
largest (>0.10) Wiberg bond orders for each atom

 ---------------------------------------------------------------------------
     #   Z sym  total        # sym  WBO       # sym  WBO       # sym  WBO
 ---------------------------------------------------------------------------
     1   6 C    3.879 --    17 O    1.653     2 N    1.181    21 C    0.948
     2   7 N    3.493 --     3 C    1.181     1 C    1.181    33 H    0.899
                            17 O    0.135
     3   6 C    3.488 --     2 N    1.181    14 C    1.095     5 C    1.024
     4   6 C    3.924 --    15 C    1.013    35 H    0.971    34 H    0.966
                            12 O    0.940
     5   6 C    3.962 --     3 C    1.024     6 C    0.965    36 H    0.956
                            37 H    0.940
     6   6 C    3.952 --    11 C    1.413     7 C    1.407     5 C    0.965
                             9 C    0.105
     7   6 C    3.983 --     8 C    1.441     6 C    1.407    38 H    0.968
                            10 C    0.113
     8   6 C    3.985 --     7 C    1.441     9 C    1.437    39 H    0.967
                            11 C    0.111
     9   6 C    3.983 --     8 C    1.437    10 C    1.436    40 H    0.969
                             6 C    0.105
    10   6 C    3.987 --    11 C    1.437     9 C    1.436    41 H    0.970
                             7 C    0.113
    11   6 C    3.984 --    10 C    1.437     6 C    1.413    42 H    0.968
                             8 C    0.111
    12   8 O    2.209 --    14 C    1.066     4 C    0.940    13 O    0.140
    13   8 O    1.871 --    14 C    1.623    12 O    0.140
    14   6 C    3.856 --    13 O    1.623     3 C    1.095    12 O    1.066
    15   6 C    3.986 --     4 C    1.013    43 H    0.985    45 H    0.985
                            44 H    0.984
    16   6 C    3.966 --    18 C    1.005    22 N    0.984    46 H    0.972
                            47 H    0.962
    17   8 O    1.910 --     1 C    1.653     2 N    0.135
    18   6 C    3.971 --    16 C    1.005    19 S    0.991    48 H    0.969
                            49 H    0.966
    19  16 S    2.091 --    20 C    0.996    18 C    0.991
    20   6 C    3.972 --    19 S    0.996    21 C    0.992    50 H    0.962
                            51 H    0.961
    21   6 C    3.967 --    20 C    0.992    22 N    0.985     1 C    0.948
                            52 H    0.917
    22   7 N    3.184 --    21 C    0.985    16 C    0.984    23 S    0.889
    23  16 S    4.774 --    30 O    1.555    31 O    1.498    22 N    0.889
                            24 C    0.721
    24   6 C    3.938 --    25 C    1.411    29 C    1.405    23 S    0.721
    25   6 C    3.986 --    26 C    1.445    24 C    1.411    53 H    0.963
                            28 C    0.105
    26   6 C    3.986 --    25 C    1.445    27 C    1.400    54 H    0.966
                            29 C    0.106
    27   6 C    3.979 --    28 C    1.404    26 C    1.400    32 C    1.029
    28   6 C    3.982 --    29 C    1.445    27 C    1.404    55 H    0.960
                            25 C    0.105
    29   6 C    3.982 --    28 C    1.445    24 C    1.405    56 H    0.964
                            26 C    0.106
    30   8 O    1.858 --    23 S    1.555
    31   8 O    1.845 --    23 S    1.498
    32   6 C    3.990 --    27 C    1.029    57 H    0.985    58 H    0.967
                            59 H    0.958
    33   1 H    0.946 --     2 N    0.899
    34   1 H    0.995 --     4 C    0.966
    35   1 H    0.995 --     4 C    0.971
    36   1 H    0.991 --     5 C    0.956
    37   1 H    0.974 --     5 C    0.940
    38   1 H    0.998 --     7 C    0.968
    39   1 H    0.995 --     8 C    0.967
    40   1 H    0.997 --     9 C    0.969
    41   1 H    0.998 --    10 C    0.970
    42   1 H    0.999 --    11 C    0.968
    43   1 H    0.996 --    15 C    0.985
    44   1 H    0.995 --    15 C    0.984
    45   1 H    0.997 --    15 C    0.985
    46   1 H    0.998 --    16 C    0.972
    47   1 H    0.995 --    16 C    0.962
    48   1 H    0.993 --    18 C    0.969
    49   1 H    0.991 --    18 C    0.966
    50   1 H    0.989 --    20 C    0.962
    51   1 H    0.992 --    20 C    0.961
    52   1 H    0.986 --    21 C    0.917
    53   1 H    0.996 --    25 C    0.963
    54   1 H    0.995 --    26 C    0.966
    55   1 H    0.991 --    28 C    0.960
    56   1 H    0.995 --    29 C    0.964
    57   1 H    0.998 --    32 C    0.985
    58   1 H    0.993 --    32 C    0.967
    59   1 H    0.993 --    32 C    0.958
    60   7 N    2.971 --    62 C    1.028    61 H    0.942   235 H    0.937
    61   1 H    0.968 --    60 N    0.942
    62   6 C    3.968 --    60 N    1.028    78 C    0.945    64 C    0.945
                            63 H    0.935
    63   1 H    0.985 --    62 C    0.935
    64   6 C    3.963 --    67 C    1.012    65 H    0.967    66 H    0.959
                            62 C    0.945
    65   1 H    0.993 --    64 C    0.967
    66   1 H    0.993 --    64 C    0.959
    67   6 C    3.984 --    68 C    1.425    76 C    1.392    64 C    1.012
                            72 C    0.106
    68   6 C    3.984 --    70 C    1.425    67 C    1.425    69 H    0.968
                            74 C    0.111
    69   1 H    0.997 --    68 C    0.968
    70   6 C    3.986 --    72 C    1.452    68 C    1.425    71 H    0.969
                            76 C    0.112
    71   1 H    0.996 --    70 C    0.969
    72   6 C    3.984 --    70 C    1.452    74 C    1.420    73 H    0.971
                            67 C    0.106
    73   1 H    0.998 --    72 C    0.971
    74   6 C    3.990 --    76 C    1.459    72 C    1.420    75 H    0.972
                            68 C    0.111
    75   1 H    0.999 --    74 C    0.972
    76   6 C    3.987 --    74 C    1.459    67 C    1.392    77 H    0.966
                            70 C    0.112
    77   1 H    1.000 --    76 C    0.966
    78   6 C    3.936 --    79 O    1.611    80 N    1.302    62 C    0.945
    79   8 O    1.916 --    78 C    1.611    80 N    0.188
    80   7 N    3.468 --    78 C    1.302    82 C    0.983    81 H    0.906
                            79 O    0.188
    81   1 H    0.951 --    80 N    0.906
    82   6 C    3.971 --    90 C    0.990    80 N    0.983    83 H    0.955
                            84 C    0.944
    83   1 H    0.993 --    82 C    0.955
    84   6 C    3.987 --    85 H    0.965    86 H    0.950    87 C    0.948
                            82 C    0.944
    85   1 H    0.996 --    84 C    0.965
    86   1 H    0.996 --    84 C    0.950
    87   6 C    3.931 --    88 O    1.483    89 O    1.474    84 C    0.948
    88   8 O    1.761 --    87 C    1.483    89 O    0.202
    89   8 O    1.745 --    87 C    1.474    88 O    0.202
    90   6 C    3.888 --    91 O    1.891    82 C    0.990   236 H    0.939
    91   8 O    2.050 --    90 C    1.891
    92   7 N    2.992 --    94 C    1.017   237 H    0.956    93 H    0.950
    93   1 H    0.962 --    92 N    0.950
    94   6 C    3.973 --    92 N    1.017    96 C    0.972   107 C    0.954
                            95 H    0.933
    95   1 H    0.992 --    94 C    0.933
    96   6 C    3.979 --    99 C    1.008    98 H    0.973    94 C    0.972
                            97 H    0.972
    97   1 H    0.995 --    96 C    0.972
    98   1 H    0.996 --    96 C    0.973
    99   6 C    3.994 --    96 C    1.008   102 C    0.979   100 H    0.964
                           101 H    0.945
   100   1 H    0.995 --    99 C    0.964
   101   1 H    0.994 --    99 C    0.945
   102   6 C    3.939 --   103 O    1.620   104 N    1.305    99 C    0.979
   103   8 O    1.907 --   102 C    1.620   104 N    0.185
   104   7 N    3.362 --   102 C    1.305   105 H    0.925   106 H    0.909
                           103 O    0.185
   105   1 H    0.945 --   104 N    0.925
   106   1 H    0.933 --   104 N    0.909
   107   6 C    3.939 --   108 O    1.620   109 N    1.281    94 C    0.954
   108   8 O    1.925 --   107 C    1.620   109 N    0.185
   109   7 N    3.464 --   107 C    1.281   111 C    0.986   110 H    0.916
                           108 O    0.185
   110   1 H    0.954 --   109 N    0.916
   111   6 C    3.964 --   109 N    0.986   113 C    0.968   112 H    0.946
                           122 C    0.943
   112   1 H    0.993 --   111 C    0.946
   113   6 C    3.988 --   116 C    1.007   115 H    0.974   114 H    0.969
                           111 C    0.968
   114   1 H    0.997 --   113 C    0.969
   115   1 H    0.997 --   113 C    0.974
   116   6 C    3.970 --   113 C    1.007   118 H    0.971   117 H    0.955
                           119 C    0.931
   117   1 H    0.997 --   116 C    0.955
   118   1 H    0.998 --   116 C    0.971
   119   6 C    3.926 --   121 O    1.498   120 O    1.471   116 C    0.931
   120   8 O    1.745 --   119 C    1.471   121 O    0.209
   121   8 O    1.773 --   119 C    1.498   120 O    0.209
   122   6 C    3.951 --   123 O    1.617   124 N    1.312   111 C    0.943
   123   8 O    1.930 --   122 C    1.617   124 N    0.197
   124   7 N    3.482 --   122 C    1.312   126 C    0.982   125 H    0.910
                           123 O    0.197
   125   1 H    0.957 --   124 N    0.910
   126   6 C    3.962 --   124 N    0.982   128 C    0.957   127 H    0.947
                           138 C    0.946
   127   1 H    0.995 --   126 C    0.947
   128   6 C    3.987 --   134 C    1.005   130 C    1.002   129 H    0.965
                           126 C    0.957
   129   1 H    0.996 --   128 C    0.965
   130   6 C    3.988 --   128 C    1.002   132 H    0.984   133 H    0.984
                           131 H    0.982
   131   1 H    0.993 --   130 C    0.982
   132   1 H    0.998 --   130 C    0.984
   133   1 H    0.997 --   130 C    0.984
   134   6 C    3.994 --   128 C    1.005   136 H    0.986   135 H    0.985
                           137 H    0.984
   135   1 H    0.999 --   134 C    0.985
   136   1 H    0.999 --   134 C    0.986
   137   1 H    0.996 --   134 C    0.984
   138   6 C    3.948 --   139 O    1.627   140 N    1.291   126 C    0.946
   139   8 O    1.930 --   138 C    1.627   140 N    0.185
   140   7 N    3.448 --   138 C    1.291   142 C    0.980   141 H    0.905
                           139 O    0.185
   141   1 H    0.953 --   140 N    0.905
   142   6 C    3.963 --   157 C    0.987   140 N    0.980   144 C    0.942
                           143 H    0.941
   143   1 H    0.992 --   142 C    0.941
   144   6 C    3.980 --   146 C    1.003   150 C    0.994   145 H    0.961
                           142 C    0.942
   145   1 H    0.995 --   144 C    0.961
   146   6 C    3.989 --   144 C    1.003   147 H    0.985   149 H    0.983
                           148 H    0.975
   147   1 H    0.998 --   146 C    0.985
   148   1 H    0.994 --   146 C    0.975
   149   1 H    0.997 --   146 C    0.983
   150   6 C    3.995 --   153 C    1.017   144 C    0.994   151 H    0.975
                           152 H    0.965
   151   1 H    0.998 --   150 C    0.975
   152   1 H    0.999 --   150 C    0.965
   153   6 C    3.989 --   150 C    1.017   156 H    0.985   155 H    0.983
                           154 H    0.980
   154   1 H    0.996 --   153 C    0.980
   155   1 H    0.998 --   153 C    0.983
   156   1 H    0.997 --   153 C    0.985
   157   6 C    3.886 --   158 O    1.879   142 C    0.987   238 H    0.938
   158   8 O    2.030 --   157 C    1.879
   159   7 N    2.983 --   161 C    1.035   160 H    0.949   239 H    0.947
   160   1 H    0.965 --   159 N    0.949
   161   6 C    3.971 --   159 N    1.035   178 C    0.979   163 C    0.939
                           162 H    0.927
   162   1 H    0.991 --   161 C    0.927
   163   6 C    3.971 --   166 C    1.007   165 H    0.965   164 H    0.960
                           161 C    0.939
   164   1 H    0.992 --   163 C    0.960
   165   1 H    0.993 --   163 C    0.965
   166   6 C    3.981 --   167 C    1.409   176 C    1.401   163 C    1.007
   167   6 C    3.987 --   169 C    1.447   166 C    1.409   168 H    0.969
                           174 C    0.105
   168   1 H    0.998 --   167 C    0.969
   169   6 C    3.984 --   167 C    1.447   171 C    1.360   170 H    0.963
                           176 C    0.106
   170   1 H    0.999 --   169 C    0.963
   171   6 C    3.920 --   174 C    1.363   169 C    1.360   172 O    1.067
   172   8 O    2.072 --   171 C    1.067   173 H    0.826
   173   1 H    0.894 --   172 O    0.826
   174   6 C    3.979 --   176 C    1.452   171 C    1.363   175 H    0.968
                           167 C    0.105
   175   1 H    0.996 --   174 C    0.968
   176   6 C    3.981 --   174 C    1.452   166 C    1.401   177 H    0.962
                           169 C    0.106
   177   1 H    0.996 --   176 C    0.962
   178   6 C    3.862 --   179 O    1.879   161 C    0.979   240 H    0.933
   179   8 O    2.028 --   178 C    1.879
   180   7 N    2.983 --   182 C    1.014   241 H    0.945   181 H    0.925
   181   1 H    0.961 --   180 N    0.925
   182   6 C    3.968 --   180 N    1.014   195 C    0.979   183 H    0.956
                           184 C    0.937
   183   1 H    0.986 --   182 C    0.956
   184   6 C    3.957 --   187 C    1.019   186 H    0.961   185 H    0.956
                           182 C    0.937
   185   1 H    0.991 --   184 C    0.956
   186   1 H    0.994 --   184 C    0.961
   187   6 C    3.962 --   193 C    1.545   188 N    1.263   184 C    1.019
   188   7 N    2.983 --   189 C    1.524   187 C    1.263   191 N    0.102
   189   6 C    3.952 --   188 N    1.524   191 N    1.295   190 H    0.965
                           193 C    0.111
   190   1 H    0.998 --   189 C    0.965
   191   7 N    3.599 --   189 C    1.295   193 C    1.203   192 H    0.919
                           188 N    0.102
   192   1 H    0.966 --   191 N    0.919
   193   6 C    3.909 --   187 C    1.545   191 N    1.203   194 H    0.966
                           189 C    0.111
   194   1 H    0.996 --   193 C    0.966
   195   6 C    3.873 --   196 O    1.885   182 C    0.979   242 H    0.935
   196   8 O    2.109 --   195 C    1.885
   197   7 N    2.966 --   199 C    1.037   243 H    0.939   198 H    0.917
   198   1 H    0.955 --   197 N    0.917
   199   6 C    3.958 --   197 N    1.037   200 H    0.953   201 C    0.936
                           214 C    0.931
   200   1 H    0.990 --   199 C    0.953
   201   6 C    3.954 --   203 C    1.008   207 C    0.995   202 H    0.962
                           199 C    0.936
   202   1 H    0.994 --   201 C    0.962
   203   6 C    3.991 --   201 C    1.008   204 H    0.980   205 H    0.979
                           206 H    0.977
   204   1 H    0.995 --   203 C    0.980
   205   1 H    0.997 --   203 C    0.979
   206   1 H    0.997 --   203 C    0.977
   207   6 C    3.990 --   210 C    1.015   201 C    0.995   208 H    0.974
                           209 H    0.973
   208   1 H    0.997 --   207 C    0.974
   209   1 H    0.999 --   207 C    0.973
   210   6 C    3.988 --   207 C    1.015   211 H    0.987   213 H    0.985
                           212 H    0.984
   211   1 H    0.998 --   210 C    0.987
   212   1 H    0.998 --   210 C    0.984
   213   1 H    0.998 --   210 C    0.985
   214   6 C    3.931 --   215 O    1.629   216 N    1.298   199 C    0.931
   215   8 O    1.938 --   214 C    1.629   216 N    0.194
   216   7 N    3.473 --   214 C    1.298   218 C    0.967   217 H    0.877
                           215 O    0.194
   217   1 H    0.943 --   216 N    0.877
   218   6 C    3.962 --   233 C    0.969   216 N    0.967   220 C    0.961
                           219 H    0.955
   219   1 H    0.993 --   218 C    0.955
   220   6 C    3.989 --   222 C    1.002   226 C    0.995   221 H    0.963
                           218 C    0.961
   221   1 H    0.997 --   220 C    0.963
   222   6 C    3.990 --   220 C    1.002   223 H    0.985   225 H    0.981
                           224 H    0.981
   223   1 H    0.997 --   222 C    0.985
   224   1 H    0.996 --   222 C    0.981
   225   1 H    0.999 --   222 C    0.981
   226   6 C    3.995 --   229 C    1.017   220 C    0.995   228 H    0.975
                           227 H    0.971
   227   1 H    0.999 --   226 C    0.971
   228   1 H    0.999 --   226 C    0.975
   229   6 C    3.993 --   226 C    1.017   232 H    0.985   230 H    0.985
                           231 H    0.983
   230   1 H    0.998 --   229 C    0.985
   231   1 H    0.998 --   229 C    0.983
   232   1 H    0.998 --   229 C    0.985
   233   6 C    3.881 --   234 O    1.896   218 C    0.969   244 H    0.937
   234   8 O    2.076 --   233 C    1.896
   235   1 H    0.952 --    60 N    0.937
   236   1 H    0.994 --    90 C    0.939
   237   1 H    0.971 --    92 N    0.956
   238   1 H    0.994 --   157 C    0.938
   239   1 H    0.962 --   159 N    0.947
   240   1 H    0.990 --   178 C    0.933
   241   1 H    0.961 --   180 N    0.945
   242   1 H    0.990 --   195 C    0.935
   243   1 H    0.953 --   197 N    0.939
   244   1 H    0.993 --   233 C    0.937
 ---------------------------------------------------------------------------

Topologies differ in total number of bonds
Writing topology from bond orders to xtbtopo.mol

molecular dipole:
                 x           y           z       tot (Debye)
 q only:      -36.462     -25.565    -128.581
   full:      -36.213     -24.355    -127.477     342.476
molecular quadrupole (traceless):
                xx          xy          yy          xz          yz          zz
 q only:     6744.341   -1546.593    8350.512   -7400.400   -4442.832  -15094.852
  q+dip:     6633.968   -1455.372    8252.907   -7280.592   -4237.980  -14886.875
   full:     6637.073   -1454.886    8253.263   -7282.196   -4236.715  -14890.336


           -------------------------------------------------
          | TOTAL ENERGY             -377.981585089014 Eh   |
          | GRADIENT NORM               0.304609395948 Eh/α |
          | HOMO-LUMO GAP               0.252009647787 eV   |
           -------------------------------------------------
Note: The following floating-point exceptions are signalling: IEEE_UNDERFLOW_FLAG IEEE_DENORMAL
normal termination of xtb

------------------------------------------------------------------------
 * finished run on 2026/01/05 at 09:07:21.555     
------------------------------------------------------------------------
 total:
 * wall-time:     0 d,  0 h,  0 min,  2.637 sec
 *  cpu-time:     0 d,  0 h,  0 min, 37.989 sec
 * ratio c/w:    14.403 speedup
 SCF:
 * wall-time:     0 d,  0 h,  0 min,  2.543 sec
 *  cpu-time:     0 d,  0 h,  0 min, 36.562 sec
 * ratio c/w:    14.379 speedup

