      -----------------------------------------------------------      
     |                   =====================                   |     
     |                           x T B                           |     
     |                   =====================                   |     
     |                         S. Grimme                         |     
     |          Mulliken Center for Theoretical Chemistry        |     
     |                    University of Bonn                     |     
      -----------------------------------------------------------      

   * xtb version 6.7.1 (edcfbbe) compiled by 'conda@c0858423619e' on 2025-09-04

   xtb is free software: you can redistribute it and/or modify it under
   the terms of the GNU Lesser General Public License as published by
   the Free Software Foundation, either version 3 of the License, or
   (at your option) any later version.
   
   xtb is distributed in the hope that it will be useful,
   but WITHOUT ANY WARRANTY; without even the implied warranty of
   MERCHANTABILITY or FITNESS FOR A PARTICULAR PURPOSE.  See the
   GNU Lesser General Public License for more details.
   
   Cite this work as:
   * C. Bannwarth, E. Caldeweyher, S. Ehlert, A. Hansen, P. Pracht,
     J. Seibert, S. Spicher, S. Grimme, WIREs Comput. Mol. Sci., 2020, 11,
     e01493. DOI: 10.1002/wcms.1493
   
   for GFN2-xTB:
   * C. Bannwarth, S. Ehlert and S. Grimme., J. Chem. Theory Comput., 2019,
     15, 1652-1671. DOI: 10.1021/acs.jctc.8b01176
   for GFN1-xTB:
   * S. Grimme, C. Bannwarth, P. Shushkov, J. Chem. Theory Comput., 2017,
     13, 1989-2009. DOI: 10.1021/acs.jctc.7b00118
   for GFN0-xTB:
   * P. Pracht, E. Caldeweyher, S. Ehlert, S. Grimme, ChemRxiv, 2019, preprint.
     DOI: 10.26434/chemrxiv.8326202.v1
   for GFN-FF:
   * S. Spicher and S. Grimme, Angew. Chem. Int. Ed., 2020, 59, 15665-15673.
     DOI: 10.1002/anie.202004239
   
   for ALPB and GBSA implicit solvation:
   * S. Ehlert, M. Stahn, S. Spicher, S. Grimme, J. Chem. Theory Comput.,
     2021, 17, 4250-4261. DOI: 10.1021/acs.jctc.1c00471
   
   for ddCOSMO and CPCM-X implicit solvation:
   * M. Stahn, S. Ehlert, S. Grimme, J. Phys. Chem. A,
     2023, XX, XXXX-XXXX. DOI: 10.1021/acs.jpca.3c04382
   
   for DFT-D4:
   * E. Caldeweyher, C. Bannwarth and S. Grimme, J. Chem. Phys., 2017,
     147, 034112. DOI: 10.1063/1.4993215
   * E. Caldeweyher, S. Ehlert, A. Hansen, H. Neugebauer, S. Spicher,
     C. Bannwarth and S. Grimme, J. Chem. Phys., 2019, 150, 154122.
     DOI: 10.1063/1.5090222
   * E. Caldeweyher, J.-M. Mewes, S. Ehlert and S. Grimme, Phys. Chem. Chem. Phys.
     2020, 22, 8499-8512. DOI: 10.1039/D0CP00502A
   
   for sTDA-xTB:
   * S. Grimme and C. Bannwarth, J. Chem. Phys., 2016, 145, 054103.
     DOI: 10.1063/1.4959605
   
   in the mass-spec context:
   * V. Asgeirsson, C. Bauer and S. Grimme, Chem. Sci., 2017, 8, 4879.
     DOI: 10.1039/c7sc00601b
   * J. Koopman and S. Grimme, ACS Omega 2019, 4, 12, 15120-15133.
     DOI: 10.1021/acsomega.9b02011
   
   for metadynamics refer to:
   * S. Grimme, J. Chem. Theory Comput., 2019, 155, 2847-2862
     DOI: 10.1021/acs.jctc.9b00143
   
   for SPH calculations refer to:
   * S. Spicher and S. Grimme, J. Chem. Theory Comput., 2021, 17, 1701-1714
     DOI: 10.1021/acs.jctc.0c01306
   
   for ONIOM refer to:
   * C. Plett, A. Katbashev, S. Ehlert, S. Grimme, M. Bursch,
     Phys. Chem. Chem. Phys., 2023, 25, 17860-17868. DOI: 10.1039/D3CP02178E
   
   for DIPRO refer to:
   * J. Kohn, N. Gildemeister, S. Grimme, D. Fazzi, A. Hansen,
     J. Chem. Phys., 2023, just accepted.
   
   for PTB refer to:
   * S. Grimme, M. Mueller, A. Hansen, J. Chem. Phys., 2023, 158, 124111.
     DOI: 10.1063/5.0137838
   
   with help from (in alphabetical order)
   P. Atkinson, C. Bannwarth, F. Bohle, G. Brandenburg, E. Caldeweyher
   M. Checinski, S. Dohm, S. Ehlert, S. Ehrlich, I. Gerasimov, C. Hölzer
   A. Katbashev, J. Kohn, J. Koopman, C. Lavigne, S. Lehtola, F. März, M. Müller,
   F. Musil, H. Neugebauer, J. Pisarek, C. Plett, P. Pracht, F. Pultar,
   J. Seibert, P. Shushkov, S. Spicher, M. Stahn, M. Steiner, T. Strunk,
   J. Stückrath, T. Rose, and J. Unsleber
   
 * started run on 2026/01/05 at 09:06:37.564     
   ID    Z sym.   atoms
    1    6 C      1, 3-11, 14-16, 18, 20, 21, 24-29, 32, 62, 64, 67, 68, 70,
                  72, 75, 77, 79, 83, 85, 88, 89, 91, 93, 95, 97, 99, 103,
                  105, 108, 111, 115, 117, 120, 121, 123, 125, 127, 129, 131,
                  135, 137, 140, 141, 143, 145, 147, 149, 151, 155, 157, 160,
                  163, 166, 170, 172, 174, 178, 182, 186, 188, 190, 194, 197,
                  201, 205, 207, 210, 211, 213, 215, 218, 220, 222, 226, 228,
                  231, 233, 237, 239, 243, 245, 247, 251, 254, 258, 262, 264,
                  266, 270, 273, 277
    2    7 N      2, 22, 60, 81, 101, 113, 133, 153, 168, 184, 203, 224, 232,
                  235, 241, 260
    3    8 O      12, 13, 17, 30, 31, 73, 80, 100, 109, 110, 112, 132, 152,
                  164, 165, 167, 183, 202, 216, 223, 240, 259, 278
    4   16 S      19, 23
    5    1 H      33-59, 61, 63, 65, 66, 69, 71, 74, 76, 78, 82, 84, 86, 87,
                  90, 92, 94, 96, 98, 102, 104, 106, 107, 114, 116, 118, 119,
                  122, 124, 126, 128, 130, 134, 136, 138, 139, 142, 144, 146,
                  148, 150, 154, 156, 158, 159, 161, 162, 169, 171, 173,
                  175-177, 179-181, 185, 187, 189, 191-193, 195, 196,
                  198-200, 204, 206, 208, 209, 212, 214, 217, 219, 221, 225,
                  227, 229, 230, 234, 236, 238, 242, 244, 246, 248-250, 252,
                  253, 255-257, 261, 263, 265, 267-269, 271, 272, 274-276,
                  279-294

           -------------------------------------------------
          |                Calculation Setup                |
           -------------------------------------------------

          program call               : xtb /home/antonio_mesquita/Documentos/gmx_ISA_project/testes_arquivos_primeiros/gmx_ISA_testes/testes_qm_xtb/QM_analysis/QM_FRAMES_CAPPED/frame_2000ps/complex_capped_2000ps.xyz --gfn 2 --alpb water --chrg -1 --etemp 1500 --cycles 1000
          coordinate file            : /home/antonio_mesquita/Documentos/gmx_ISA_project/testes_arquivos_primeiros/gmx_ISA_testes/testes_qm_xtb/QM_analysis/QM_FRAMES_CAPPED/frame_2000ps/complex_capped_2000ps.xyz
          omp threads                :                    16


molecular fragmentation (1/2 indicates fragments):
111111111111111111111111111111111111111111111111111111111112222222222222
222222222222222222222222222222222222222222222222222222222222222222222222
222222222222222222222222222222222222222222222222222222222222222222222222
222222222222222222222222222222222222222222222222222222222222222222222222
222222
# atoms in fragment 1/2:    59   235
 fragment masses (1/2) :      475.60     1601.93
CMA distance (Bohr)    :   7.575
constraining FC (au)   :  0.0500

           -------------------------------------------------
          |                 G F N 2 - x T B                 |
           -------------------------------------------------

        Reference                      10.1021/acs.jctc.8b01176
      * Hamiltonian:
        H0-scaling (s, p, d)           1.850000    2.230000    2.230000
        zeta-weighting                 0.500000
      * Dispersion:
        s8                             2.700000
        a1                             0.520000
        a2                             5.000000
        s9                             5.000000
      * Repulsion:
        kExp                           1.500000    1.000000
        rExp                           1.000000
      * Coulomb:
        alpha                          2.000000
        third order                    shell-resolved
        anisotropic                    true
        a3                             3.000000
        a5                             4.000000
        cn-shift                       1.200000
        cn-exp                         4.000000
        max-rad                        5.000000

      * Solvation model:               ALPB
        Solvent                        water
        Parameter file                 internal GFN2-xTB/ALPB
        Dielectric constant                8.0200E+01
        Reference state                gsolv [1 M gas/solution]
        Free energy shift                  1.0808E-03 Eh       6.7819E-01 kcal/mol
        Temperature                        2.9815E+02 K
        Density                            1.0000E+00 kg/L
        Solvent mass                       1.8000E+01 g/mol
        Interaction kernel             P16
        Born radius scaling (c1)           1.4744E+00
        Born radii integrator          GBOBC
        Born offset                        0.0000E+00 a0       0.0000E+00 AA
        H-bond correction              true
        Ion screening                  false
        Surface tension                    1.0000E-05 Eh       1.5569E+01 dyn/cm
        Grid points                               230 per atom

          ...................................................
          :                      SETUP                      :
          :.................................................:
          :  # basis functions                 747          :
          :  # atomic orbitals                 745          :
          :  # shells                          443          :
          :  # electrons                       802          :
          :  max. iterations                   250          :
          :  Hamiltonian                  GFN2-xTB          :
          :  restarted?                      false          :
          :  GBSA solvation                   true          :
          :  PC potential                    false          :
          :  electronic temp.         1500.0000000     K    :
          :  accuracy                    1.0000000          :
          :  -> integral cutoff          0.2500000E+02      :
          :  -> integral neglect         0.1000000E-07      :
          :  -> SCF convergence          0.1000000E-05 Eh   :
          :  -> wf. convergence          0.1000000E-03 e    :
          :  Broyden damping             0.4000000          :
          :  net charge                         -1          :
          :  unpaired electrons                  0          :
          ...................................................

 iter      E             dE          RMSdq      gap      omega  full diag
   1   -453.2860763 -0.453286E+03  0.455E+00    0.04       0.0  T
   2   -454.0056244 -0.719548E+00  0.256E+00    1.44       1.0  T
   3   -453.9043309  0.101294E+00  0.167E+00    0.08       1.0  T
   4   -454.1688178 -0.264487E+00  0.790E-01    0.45       1.0  T
   5   -454.2041274 -0.353096E-01  0.593E-01    0.07       1.0  T
   6   -454.3140303 -0.109903E+00  0.205E-01    0.21       1.0  T
   7   -454.3139066  0.123687E-03  0.168E-01    0.26       1.0  T
   8   -454.3159638 -0.205716E-02  0.128E-01    0.23       1.0  T
   9   -454.3181595 -0.219577E-02  0.894E-02    0.31       1.0  T
  10   -454.3205889 -0.242937E-02  0.307E-02    0.32       1.0  T
  11   -454.3204972  0.917267E-04  0.312E-02    0.28       1.0  T
  12   -454.3207311 -0.233915E-03  0.124E-02    0.31       1.0  T
  13   -454.3207343 -0.321855E-05  0.967E-03    0.29       1.0  T
  14   -454.3207550 -0.206904E-04  0.501E-03    0.30       1.2  T
  15   -454.3207596 -0.463891E-05  0.255E-03    0.30       2.3  T
  16   -454.3207604 -0.715286E-06  0.171E-03    0.30       3.4  T
  17   -454.3207610 -0.685024E-06  0.834E-04    0.30       7.0  T
  18   -454.3207612 -0.127912E-06  0.417E-04    0.30      14.0  T

   *** convergence criteria satisfied after 18 iterations ***

         #    Occupation            Energy/Eh            Energy/eV
      -------------------------------------------------------------
         1        2.0000           -0.7888862             -21.4667
       ...           ...                  ...                  ...
       395        1.9022           -0.3572212              -9.7205
       396        1.8917           -0.3567078              -9.7065
       397        1.8819           -0.3562742              -9.6947
       398        1.8763           -0.3560404              -9.6884
       399        1.8692           -0.3557554              -9.6806
       400        1.8482           -0.3549953              -9.6599
       401        1.8392           -0.3546985              -9.6518 (HOMO)
       402        1.0610           -0.3437028              -9.3526 (LUMO)
       403        0.0001           -0.2977616              -8.1025
       404        0.0001           -0.2936871              -7.9916
       405        0.0000           -0.2925669              -7.9612
       406        0.0000           -0.2883187              -7.8456
       ...           ...                  ...                  ...
       745                          1.0395609              28.2879
      -------------------------------------------------------------
                  HL-Gap            0.0109957 Eh            0.2992 eV
             Fermi-level           -0.3431221 Eh           -9.3368 eV

 SCC (total)                   0 d,  0 h,  0 min,  3.520 sec
 SCC setup                      ...        0 min,  0.017 sec (  0.497%)
 Dispersion                     ...        0 min,  0.038 sec (  1.089%)
 classical contributions        ...        0 min,  0.005 sec (  0.149%)
 integral evaluation            ...        0 min,  0.054 sec (  1.534%)
 iterations                     ...        0 min,  3.076 sec ( 87.381%)
 molecular gradient             ...        0 min,  0.310 sec (  8.804%)
 printout                       ...        0 min,  0.019 sec (  0.546%)

         :::::::::::::::::::::::::::::::::::::::::::::::::::::
         ::                     SUMMARY                     ::
         :::::::::::::::::::::::::::::::::::::::::::::::::::::
         :: total energy            -448.636149592552 Eh    ::
         :: total w/o Gsasa/hb      -448.613242532646 Eh    ::
         :: gradient norm              0.341408360742 Eh/a0 ::
         :: HOMO-LUMO gap              0.299209213822 eV    ::
         ::.................................................::
         :: SCC energy              -454.298577221224 Eh    ::
         :: -> isotropic ES            1.212070099517 Eh    ::
         :: -> anisotropic ES         -0.001970483288 Eh    ::
         :: -> anisotropic XC          0.192562636563 Eh    ::
         :: -> dispersion             -0.359151794618 Eh    ::
         :: -> Gsolv                  -0.343805182642 Eh    ::
         ::    -> Gelec               -0.320898122736 Eh    ::
         ::    -> Gsasa                0.016289116191 Eh    ::
         ::    -> Ghb                 -0.040276935795 Eh    ::
         ::    -> Gshift               0.001080759698 Eh    ::
         :: repulsion energy           5.662427628672 Eh    ::
         :: add. restraining           0.000000000000 Eh    ::
         :: total charge              -1.000000000001 e     ::
         :::::::::::::::::::::::::::::::::::::::::::::::::::::

           -------------------------------------------------
          |                Property Printout                |
           -------------------------------------------------

    * Orbital Energies and Occupations

         #    Occupation            Energy/Eh            Energy/eV
      -------------------------------------------------------------
         1        2.0000           -0.7888862             -21.4667
       ...           ...                  ...                  ...
       389        1.9972           -0.3743858             -10.1876
       390        1.9913           -0.3689565             -10.0398
       391        1.9912           -0.3688553             -10.0371
       392        1.9905           -0.3685167             -10.0279
       393        1.9609           -0.3617134              -9.8427
       394        1.9036           -0.3572943              -9.7225
       395        1.9022           -0.3572212              -9.7205
       396        1.8917           -0.3567078              -9.7065
       397        1.8819           -0.3562742              -9.6947
       398        1.8763           -0.3560404              -9.6884
       399        1.8692           -0.3557554              -9.6806
       400        1.8482           -0.3549953              -9.6599
       401        1.8392           -0.3546985              -9.6518 (HOMO)
       402        1.0610           -0.3437028              -9.3526 (LUMO)
       403        0.0001           -0.2977616              -8.1025
       404        0.0001           -0.2936871              -7.9916
       405        0.0000           -0.2925669              -7.9612
       406        0.0000           -0.2883187              -7.8456
       407        0.0000           -0.2873065              -7.8180
       408        0.0000           -0.2841334              -7.7317
       409        0.0000           -0.2801123              -7.6222
       410        0.0000           -0.2798992              -7.6164
       411                         -0.2594239              -7.0593
       412                         -0.2462935              -6.7020
       ...                                ...                  ...
       745                          1.0395609              28.2879
      -------------------------------------------------------------
                  HL-Gap            0.0109957 Eh            0.2992 eV
             Fermi-level           -0.3431221 Eh           -9.3368 eV

     #   Z          covCN         q      C6AA      α(0)
     1   6 C        2.748     0.258    22.659     7.794
     2   7 N        2.692    -0.122    23.654     7.223
     3   6 C        2.877     0.026    27.414     8.583
     4   6 C        3.684     0.091    19.267     6.285
     5   6 C        3.804    -0.059    21.624     6.620
     6   6 C        2.960     0.020    27.557     8.610
     7   6 C        2.924    -0.036    28.900     8.816
     8   6 C        2.925    -0.033    28.813     8.803
     9   6 C        2.901    -0.032    28.806     8.800
    10   6 C        2.924    -0.032    28.810     8.802
    11   6 C        2.926    -0.042    29.036     8.837
    12   8 O        1.706    -0.303    19.044     5.892
    13   8 O        0.856    -0.494    23.658     6.521
    14   6 C        2.709     0.331    21.374     7.568
    15   6 C        3.747    -0.114    22.760     6.805
    16   6 C        3.813     0.021    20.214     6.399
    17   8 O        0.859    -0.461    22.942     6.422
    18   6 C        3.788    -0.014    20.846     6.503
    19  16 S        1.952    -0.181   148.737    20.527
    20   6 C        3.793    -0.041    21.312     6.574
    21   6 C        3.837     0.034    19.971     6.358
    22   7 N        2.728    -0.293    27.539     7.794
    23  16 S        3.765     1.160   102.173    17.013
    24   6 C        2.954    -0.092    30.312     9.030
    25   6 C        2.950    -0.029    28.725     8.791
    26   6 C        2.935    -0.032    28.790     8.800
    27   6 C        2.949     0.033    27.262     8.564
    28   6 C        2.938    -0.040    28.995     8.831
    29   6 C        2.930    -0.028    28.700     8.786
    30   8 O        0.860    -0.668    27.847     7.075
    31   8 O        0.860    -0.617    26.546     6.908
    32   6 C        3.750    -0.136    23.175     6.866
    33   1 H        0.860     0.234     0.947     1.524
    34   1 H        0.924     0.049     2.335     2.390
    35   1 H        0.923     0.050     2.325     2.385
    36   1 H        0.924     0.072     2.059     2.244
    37   1 H        0.924     0.081     1.966     2.193
    38   1 H        0.925     0.038     2.482     2.464
    39   1 H        0.924     0.043     2.408     2.427
    40   1 H        0.924     0.056     2.250     2.346
    41   1 H        0.925     0.036     2.500     2.473
    42   1 H        0.925     0.030     2.581     2.513
    43   1 H        0.924     0.056     2.241     2.341
    44   1 H        0.924     0.063     2.165     2.301
    45   1 H        0.924     0.060     2.195     2.317
    46   1 H        0.924     0.030     2.589     2.516
    47   1 H        0.924     0.052     2.298     2.371
    48   1 H        0.922     0.053     2.289     2.366
    49   1 H        0.924     0.052     2.297     2.370
    50   1 H        0.924     0.095     1.828     2.114
    51   1 H        0.924     0.108     1.717     2.049
    52   1 H        0.924     0.098     1.807     2.102
    53   1 H        0.925     0.070     2.081     2.256
    54   1 H        0.925     0.085     1.925     2.170
    55   1 H        0.926     0.071     2.072     2.251
    56   1 H        0.925     0.048     2.347     2.396
    57   1 H        0.924     0.071     2.072     2.251
    58   1 H        0.923     0.092     1.862     2.134
    59   1 H        0.924     0.079     1.994     2.208
    60   7 N        2.633    -0.329    28.465     7.924
    61   1 H        0.860     0.183     1.199     1.715
    62   6 C        3.790     0.035    19.997     6.369
    63   1 H        0.925     0.093     1.854     2.129
    64   6 C        3.822    -0.082    22.055     6.683
    65   1 H        0.924     0.089     1.885     2.147
    66   1 H        0.924     0.069     2.099     2.266
    67   6 C        2.973     0.008    27.839     8.655
    68   6 C        2.925    -0.048    29.201     8.862
    69   1 H        0.926     0.048     2.348     2.396
    70   6 C        2.918    -0.067    29.674     8.933
    71   1 H        0.925     0.027     2.635     2.538
    72   6 C        2.832     0.138    24.984     8.191
    73   8 O        1.660    -0.470    22.256     6.369
    74   1 H        0.806     0.328     0.643     1.259
    75   6 C        2.930    -0.062    29.533     8.912
    76   1 H        0.925     0.031     2.570     2.507
    77   6 C        2.907    -0.040    28.996     8.830
    78   1 H        0.926     0.062     2.177     2.307
    79   6 C        2.763     0.213    23.485     7.936
    80   8 O        0.856    -0.385    21.388     6.201
    81   7 N        2.631    -0.340    28.748     7.963
    82   1 H        0.860     0.171     1.265     1.762
    83   6 C        3.788     0.031    20.060     6.379
    84   1 H        0.924     0.081     1.968     2.194
    85   6 C        3.813    -0.073    21.890     6.659
    86   1 H        0.924     0.078     2.005     2.214
    87   1 H        0.924     0.048     2.340     2.392
    88   6 C        2.974     0.012    27.736     8.639
    89   6 C        2.908    -0.046    29.147     8.853
    90   1 H        0.925     0.062     2.172     2.305
    91   6 C        2.914    -0.038    28.955     8.824
    92   1 H        0.926     0.053     2.285     2.364
    93   6 C        2.908    -0.037    28.910     8.817
    94   1 H        0.925     0.041     2.429     2.437
    95   6 C        2.917    -0.034    28.838     8.806
    96   1 H        0.925     0.018     2.756     2.596
    97   6 C        2.908    -0.042    29.046     8.837
    98   1 H        0.926     0.014     2.819     2.626
    99   6 C        2.747     0.274    22.363     7.743
   100   8 O        0.860    -0.517    24.173     6.592
   101   7 N        2.685    -0.167    24.607     7.367
   102   1 H        0.860     0.226     0.982     1.552
   103   6 C        3.791     0.048    19.784     6.334
   104   1 H        0.924     0.069     2.094     2.263
   105   6 C        3.815    -0.074    21.906     6.661
   106   1 H        0.924     0.040     2.450     2.448
   107   1 H        0.925     0.057     2.233     2.337
   108   6 C        2.691     0.364    20.821     7.468
   109   8 O        0.857    -0.639    27.106     6.980
   110   8 O        0.859    -0.644    27.213     6.994
   111   6 C        2.767     0.208    23.579     7.952
   112   8 O        0.857    -0.351    20.734     6.105
   113   7 N        2.633    -0.336    28.658     7.951
   114   1 H        0.860     0.188     1.170     1.694
   115   6 C        3.785     0.044    19.854     6.347
   116   1 H        0.924     0.065     2.146     2.291
   117   6 C        3.816    -0.071    21.854     6.654
   118   1 H        0.925     0.068     2.111     2.272
   119   1 H        0.924     0.070     2.088     2.260
   120   6 C        2.961     0.008    27.830     8.653
   121   6 C        2.918    -0.038    28.947     8.823
   122   1 H        0.925     0.047     2.361     2.403
   123   6 C        2.906    -0.035    28.875     8.811
   124   1 H        0.926     0.042     2.422     2.434
   125   6 C        2.913    -0.045    29.124     8.849
   126   1 H        0.925     0.029     2.602     2.522
   127   6 C        2.911    -0.040    28.999     8.830
   128   1 H        0.926     0.023     2.690     2.565
   129   6 C        2.914    -0.049    29.220     8.864
   130   1 H        0.925     0.038     2.480     2.463
   131   6 C        2.761     0.207    23.600     7.956
   132   8 O        0.856    -0.362    20.934     6.134
   133   7 N        2.641    -0.322    28.293     7.900
   134   1 H        0.860     0.186     1.178     1.700
   135   6 C        3.783     0.042    19.894     6.353
   136   1 H        0.926     0.073     2.047     2.238
   137   6 C        3.823    -0.066    21.740     6.635
   138   1 H        0.925     0.068     2.106     2.269
   139   1 H        0.924     0.041     2.436     2.441
   140   6 C        2.960     0.011    27.774     8.644
   141   6 C        2.913    -0.043    29.068     8.841
   142   1 H        0.926     0.031     2.566     2.505
   143   6 C        2.919    -0.041    29.007     8.832
   144   1 H        0.925     0.039     2.466     2.456
   145   6 C        2.901    -0.048    29.179     8.857
   146   1 H        0.926     0.048     2.350     2.397
   147   6 C        2.922    -0.036    28.897     8.815
   148   1 H        0.926     0.041     2.442     2.444
   149   6 C        2.910    -0.036    28.883     8.813
   150   1 H        0.926     0.049     2.328     2.386
   151   6 C        2.763     0.212    23.512     7.941
   152   8 O        0.856    -0.380    21.280     6.185
   153   7 N        2.648    -0.354    29.130     8.016
   154   1 H        0.860     0.180     1.211     1.724
   155   6 C        3.789     0.039    19.936     6.359
   156   1 H        0.925     0.057     2.239     2.340
   157   6 C        3.808    -0.045    21.381     6.582
   158   1 H        0.924     0.051     2.303     2.373
   159   1 H        0.925     0.053     2.280     2.362
   160   6 C        3.804    -0.088    22.178     6.705
   161   1 H        0.925     0.033     2.542     2.493
   162   1 H        0.925     0.035     2.522     2.483
   163   6 C        2.687     0.365    20.809     7.465
   164   8 O        0.859    -0.649    27.361     7.013
   165   8 O        0.859    -0.648    27.330     7.009
   166   6 C        2.762     0.265    22.521     7.772
   167   8 O        0.861    -0.523    24.296     6.609
   168   7 N        2.691    -0.151    24.264     7.316
   169   1 H        0.860     0.219     1.012     1.576
   170   6 C        3.804     0.026    20.140     6.389
   171   1 H        0.925     0.073     2.054     2.241
   172   6 C        3.855    -0.016    20.825     6.490
   173   1 H        0.924     0.054     2.272     2.357
   174   6 C        3.760    -0.114    22.726     6.796
   175   1 H        0.924     0.039     2.461     2.454
   176   1 H        0.924     0.039     2.460     2.453
   177   1 H        0.924     0.055     2.254     2.348
   178   6 C        3.755    -0.121    22.873     6.819
   179   1 H        0.924     0.050     2.322     2.383
   180   1 H        0.925     0.047     2.355     2.400
   181   1 H        0.924     0.060     2.205     2.322
   182   6 C        2.758     0.263    22.564     7.779
   183   8 O        0.860    -0.527    24.393     6.622
   184   7 N        2.688    -0.155    24.353     7.329
   185   1 H        0.860     0.207     1.072     1.622
   186   6 C        3.796     0.031    20.055     6.377
   187   1 H        0.924     0.090     1.883     2.146
   188   6 C        3.857    -0.016    20.823     6.490
   189   1 H        0.924     0.065     2.142     2.289
   190   6 C        3.755    -0.129    23.038     6.844
   191   1 H        0.925     0.051     2.310     2.377
   192   1 H        0.924     0.062     2.171     2.304
   193   1 H        0.925     0.056     2.242     2.342
   194   6 C        3.804    -0.068    21.794     6.646
   195   1 H        0.925     0.040     2.447     2.446
   196   1 H        0.925     0.044     2.402     2.424
   197   6 C        3.750    -0.120    22.860     6.819
   198   1 H        0.924     0.052     2.299     2.371
   199   1 H        0.924     0.050     2.314     2.379
   200   1 H        0.925     0.042     2.425     2.435
   201   6 C        2.758     0.206    23.616     7.958
   202   8 O        0.857    -0.375    21.191     6.172
   203   7 N        2.630    -0.342    28.801     7.970
   204   1 H        0.860     0.185     1.184     1.704
   205   6 C        3.784     0.039    19.932     6.359
   206   1 H        0.924     0.088     1.895     2.153
   207   6 C        3.808    -0.067    21.786     6.644
   208   1 H        0.924     0.063     2.165     2.301
   209   1 H        0.924     0.057     2.239     2.340
   210   6 C        2.959     0.006    27.890     8.662
   211   6 C        2.915    -0.042    29.053     8.839
   212   1 H        0.926     0.047     2.363     2.404
   213   6 C        2.919    -0.070    29.748     8.944
   214   1 H        0.926     0.029     2.594     2.519
   215   6 C        2.826     0.137    24.994     8.192
   216   8 O        1.660    -0.424    21.313     6.232
   217   1 H        0.806     0.323     0.655     1.271
   218   6 C        2.923    -0.065    29.628     8.926
   219   1 H        0.925     0.053     2.279     2.361
   220   6 C        2.914    -0.045    29.111     8.848
   221   1 H        0.925     0.059     2.209     2.324
   222   6 C        2.759     0.199    23.761     7.983
   223   8 O        0.856    -0.393    21.542     6.223
   224   7 N        2.631    -0.329    28.466     7.924
   225   1 H        0.860     0.200     1.107     1.648
   226   6 C        3.786     0.050    19.759     6.331
   227   1 H        0.924     0.057     2.235     2.338
   228   6 C        3.809    -0.073    21.880     6.658
   229   1 H        0.924     0.074     2.043     2.235
   230   1 H        0.925     0.061     2.189     2.314
   231   6 C        3.044     0.040    27.067     8.533
   232   7 N        1.939    -0.340    29.660     8.076
   233   6 C        3.088     0.081    26.092     8.373
   234   1 H        0.926     0.042     2.421     2.433
   235   7 N        2.752    -0.099    23.186     7.151
   236   1 H        0.861     0.231     0.961     1.536
   237   6 C        3.109    -0.030    28.610     8.763
   238   1 H        0.925     0.063     2.170     2.303
   239   6 C        2.760     0.206    23.621     7.959
   240   8 O        0.856    -0.353    20.770     6.110
   241   7 N        2.631    -0.334    28.604     7.943
   242   1 H        0.860     0.190     1.161     1.688
   243   6 C        3.789     0.026    20.153     6.394
   244   1 H        0.925     0.059     2.212     2.326
   245   6 C        3.855    -0.025    20.977     6.514
   246   1 H        0.923     0.045     2.385     2.415
   247   6 C        3.754    -0.120    22.853     6.817
   248   1 H        0.924     0.046     2.367     2.406
   249   1 H        0.924     0.054     2.269     2.356
   250   1 H        0.924     0.052     2.298     2.371
   251   6 C        3.804    -0.062    21.697     6.631
   252   1 H        0.925     0.040     2.447     2.446
   253   1 H        0.924     0.031     2.568     2.506
   254   6 C        3.750    -0.113    22.718     6.798
   255   1 H        0.925     0.030     2.593     2.518
   256   1 H        0.925     0.042     2.419     2.432
   257   1 H        0.924     0.046     2.369     2.407
   258   6 C        2.754     0.268    22.468     7.762
   259   8 O        0.861    -0.531    24.473     6.633
   260   7 N        2.694    -0.154    24.321     7.324
   261   1 H        0.860     0.235     0.942     1.520
   262   6 C        3.799     0.036    19.968     6.363
   263   1 H        0.925     0.079     1.993     2.208
   264   6 C        3.854    -0.025    20.982     6.515
   265   1 H        0.925     0.076     2.023     2.224
   266   6 C        3.756    -0.121    22.878     6.820
   267   1 H        0.924     0.060     2.201     2.320
   268   1 H        0.924     0.032     2.556     2.500
   269   1 H        0.924     0.046     2.364     2.405
   270   6 C        3.805    -0.062    21.685     6.629
   271   1 H        0.925     0.039     2.468     2.457
   272   1 H        0.925     0.043     2.411     2.428
   273   6 C        3.749    -0.111    22.690     6.794
   274   1 H        0.925     0.039     2.466     2.456
   275   1 H        0.924     0.043     2.410     2.428
   276   1 H        0.924     0.045     2.383     2.414
   277   6 C        2.765     0.209    23.576     7.952
   278   8 O        0.857    -0.368    21.048     6.151
   279   1 H        0.860     0.219     1.012     1.576
   280   1 H        0.923     0.066     2.135     2.285
   281   1 H        0.860     0.200     1.106     1.647
   282   1 H        0.923     0.067     2.123     2.279
   283   1 H        0.860     0.197     1.120     1.657
   284   1 H        0.923     0.048     2.341     2.393
   285   1 H        0.860     0.181     1.208     1.722
   286   1 H        0.923     0.058     2.223     2.332
   287   1 H        0.860     0.188     1.167     1.693
   288   1 H        0.923     0.079     1.991     2.206
   289   1 H        0.860     0.194     1.138     1.671
   290   1 H        0.923     0.067     2.120     2.277
   291   1 H        0.860     0.190     1.157     1.685
   292   1 H        0.923     0.068     2.109     2.271
   293   1 H        0.860     0.198     1.117     1.655
   294   1 H        0.923     0.075     2.035     2.231

 Mol. C6AA /au·bohr⁶  :     900632.725266
 Mol. C8AA /au·bohr⁸  :   21044285.035220
 Mol. α(0) /au        :       1455.242335


Wiberg/Mayer (AO) data.
largest (>0.10) Wiberg bond orders for each atom

 ---------------------------------------------------------------------------
     #   Z sym  total        # sym  WBO       # sym  WBO       # sym  WBO
 ---------------------------------------------------------------------------
     1   6 C    3.883 --    17 O    1.664     2 N    1.192    21 C    0.937
     2   7 N    3.489 --     1 C    1.192     3 C    1.180    33 H    0.883
                            17 O    0.133
     3   6 C    3.499 --     2 N    1.180    14 C    1.107     5 C    1.027
     4   6 C    3.920 --    15 C    1.012    34 H    0.965    35 H    0.964
                            12 O    0.937
     5   6 C    3.970 --     3 C    1.027     6 C    0.972    36 H    0.950
                            37 H    0.946
     6   6 C    3.953 --     7 C    1.410    11 C    1.405     5 C    0.972
                             9 C    0.108
     7   6 C    3.984 --     8 C    1.436     6 C    1.410    38 H    0.969
                            10 C    0.111
     8   6 C    3.987 --     9 C    1.439     7 C    1.436    39 H    0.968
                            11 C    0.109
     9   6 C    3.982 --     8 C    1.439    10 C    1.428    40 H    0.967
                             6 C    0.108
    10   6 C    3.987 --    11 C    1.446     9 C    1.428    41 H    0.963
                             7 C    0.111
    11   6 C    3.985 --    10 C    1.446     6 C    1.405    42 H    0.969
                             8 C    0.109
    12   8 O    2.213 --    14 C    1.068     4 C    0.937    13 O    0.145
    13   8 O    1.871 --    14 C    1.608    12 O    0.145
    14   6 C    3.860 --    13 O    1.608     3 C    1.107    12 O    1.068
    15   6 C    3.987 --     4 C    1.012    45 H    0.984    43 H    0.984
                            44 H    0.983
    16   6 C    3.971 --    18 C    1.000    22 N    0.992    46 H    0.966
                            47 H    0.964
    17   8 O    1.899 --     1 C    1.664     2 N    0.133
    18   6 C    3.980 --    16 C    1.000    19 S    0.989    48 H    0.976
                            49 H    0.973
    19  16 S    2.113 --    20 C    0.991    18 C    0.989
    20   6 C    3.966 --    21 C    0.991    19 S    0.991    50 H    0.966
                            51 H    0.948
    21   6 C    3.968 --    20 C    0.991    22 N    0.982     1 C    0.937
                            52 H    0.936
    22   7 N    3.185 --    16 C    0.992    21 C    0.982    23 S    0.886
    23  16 S    4.820 --    31 O    1.574    30 O    1.533    22 N    0.886
                            24 C    0.732
    24   6 C    3.939 --    29 C    1.416    25 C    1.399    23 S    0.732
    25   6 C    3.977 --    26 C    1.446    24 C    1.399    53 H    0.963
                            28 C    0.107
    26   6 C    3.982 --    25 C    1.446    27 C    1.400    54 H    0.961
                            29 C    0.107
    27   6 C    3.978 --    28 C    1.407    26 C    1.400    32 C    1.025
    28   6 C    3.983 --    29 C    1.433    27 C    1.407    55 H    0.962
                            25 C    0.107
    29   6 C    3.984 --    28 C    1.433    24 C    1.416    56 H    0.966
                            26 C    0.107
    30   8 O    1.830 --    23 S    1.533    31 O    0.104
    31   8 O    1.869 --    23 S    1.574    30 O    0.104
    32   6 C    3.984 --    27 C    1.025    57 H    0.981    59 H    0.968
                            58 H    0.960
    33   1 H    0.945 --     2 N    0.883
    34   1 H    0.995 --     4 C    0.965
    35   1 H    0.994 --     4 C    0.964
    36   1 H    0.994 --     5 C    0.950
    37   1 H    0.979 --     5 C    0.946
    38   1 H    0.998 --     7 C    0.969
    39   1 H    0.997 --     8 C    0.968
    40   1 H    0.996 --     9 C    0.967
    41   1 H    0.998 --    10 C    0.963
    42   1 H    0.999 --    11 C    0.969
    43   1 H    0.997 --    15 C    0.984
    44   1 H    0.995 --    15 C    0.983
    45   1 H    0.996 --    15 C    0.984
    46   1 H    0.999 --    16 C    0.966
    47   1 H    0.997 --    16 C    0.964
    48   1 H    0.996 --    18 C    0.976
    49   1 H    0.997 --    18 C    0.973
    50   1 H    0.990 --    20 C    0.966
    51   1 H    0.987 --    20 C    0.948
    52   1 H    0.988 --    21 C    0.936
    53   1 H    0.995 --    25 C    0.963
    54   1 H    0.992 --    26 C    0.961
    55   1 H    0.994 --    28 C    0.962
    56   1 H    0.997 --    29 C    0.966
    57   1 H    0.995 --    32 C    0.981
    58   1 H    0.991 --    32 C    0.960
    59   1 H    0.993 --    32 C    0.968
    60   7 N    2.986 --    62 C    1.037    61 H    0.951   279 H    0.937
    61   1 H    0.967 --    60 N    0.951
    62   6 C    3.976 --    60 N    1.037    79 C    0.988    63 H    0.939
                            64 C    0.920
    63   1 H    0.984 --    62 C    0.939
    64   6 C    3.962 --    67 C    1.006    66 H    0.968    65 H    0.956
                            62 C    0.920
    65   1 H    0.992 --    64 C    0.956
    66   1 H    0.993 --    64 C    0.968
    67   6 C    3.977 --    77 C    1.404    68 C    1.403    64 C    1.006
    68   6 C    3.979 --    70 C    1.443    67 C    1.403    69 H    0.967
                            75 C    0.109
    69   1 H    0.998 --    68 C    0.967
    70   6 C    3.980 --    68 C    1.443    72 C    1.373    71 H    0.968
                            77 C    0.106
    71   1 H    0.999 --    70 C    0.968
    72   6 C    3.919 --    70 C    1.373    75 C    1.362    73 O    1.052
    73   8 O    2.022 --    72 C    1.052    74 H    0.810
    74   1 H    0.892 --    73 O    0.810
    75   6 C    3.980 --    77 C    1.450    72 C    1.362    76 H    0.971
                            68 C    0.109
    76   1 H    0.999 --    75 C    0.971
    77   6 C    3.982 --    75 C    1.450    67 C    1.404    78 H    0.964
                            70 C    0.106
    78   1 H    0.996 --    77 C    0.964
    79   6 C    3.882 --    80 O    1.884    62 C    0.988   280 H    0.934
    80   8 O    2.051 --    79 C    1.884
    81   7 N    2.996 --    83 C    1.031    82 H    0.953   281 H    0.946
    82   1 H    0.971 --    81 N    0.953
    83   6 C    3.970 --    81 N    1.031    84 H    0.950    85 C    0.950
                            99 C    0.932
    84   1 H    0.992 --    83 C    0.950
    85   6 C    3.978 --    88 C    1.010    87 H    0.967    86 H    0.959
                            83 C    0.950
    86   1 H    0.992 --    85 C    0.959
    87   1 H    0.997 --    85 C    0.967
    88   6 C    3.986 --    89 C    1.421    97 C    1.402    85 C    1.010
                            93 C    0.106
    89   6 C    3.986 --    91 C    1.433    88 C    1.421    90 H    0.966
                            95 C    0.109
    90   1 H    0.996 --    89 C    0.966
    91   6 C    3.989 --    93 C    1.440    89 C    1.433    92 H    0.970
                            97 C    0.117
    92   1 H    0.997 --    91 C    0.970
    93   6 C    3.988 --    91 C    1.440    95 C    1.439    94 H    0.970
                            88 C    0.106
    94   1 H    0.998 --    93 C    0.970
    95   6 C    3.992 --    97 C    1.444    93 C    1.439    96 H    0.971
                            89 C    0.109
    96   1 H    0.999 --    95 C    0.971
    97   6 C    3.988 --    95 C    1.444    88 C    1.402    98 H    0.968
                            91 C    0.117
    98   1 H    1.000 --    97 C    0.968
    99   6 C    3.918 --   100 O    1.620   101 N    1.294    83 C    0.932
   100   8 O    1.913 --    99 C    1.620   101 N    0.186
   101   7 N    3.455 --    99 C    1.294   103 C    0.988   102 H    0.905
                           100 O    0.186
   102   1 H    0.949 --   101 N    0.905
   103   6 C    3.978 --   111 C    0.990   101 N    0.988   104 H    0.946
                           105 C    0.944
   104   1 H    0.995 --   103 C    0.946
   105   6 C    3.987 --   106 H    0.974   107 H    0.953   103 C    0.944
                           108 C    0.940
   106   1 H    0.998 --   105 C    0.974
   107   1 H    0.997 --   105 C    0.953
   108   6 C    3.934 --   109 O    1.505   110 O    1.457   105 C    0.940
   109   8 O    1.797 --   108 C    1.505   110 O    0.213
   110   8 O    1.808 --   108 C    1.457   109 O    0.213
   111   6 C    3.894 --   112 O    1.893   103 C    0.990   282 H    0.941
   112   8 O    2.059 --   111 C    1.893
   113   7 N    3.004 --   115 C    1.023   114 H    0.949   283 H    0.946
   114   1 H    0.965 --   113 N    0.949
   115   6 C    3.977 --   113 N    1.023   116 H    0.962   131 C    0.959
                           117 C    0.951
   116   1 H    0.994 --   115 C    0.962
   117   6 C    3.984 --   120 C    1.005   118 H    0.970   119 H    0.956
                           115 C    0.951
   118   1 H    0.995 --   117 C    0.970
   119   1 H    0.994 --   117 C    0.956
   120   6 C    3.986 --   129 C    1.410   121 C    1.408   117 C    1.005
                           125 C    0.111
   121   6 C    3.987 --   123 C    1.449   120 C    1.408   122 H    0.966
                           127 C    0.107
   122   1 H    0.998 --   121 C    0.966
   123   6 C    3.989 --   121 C    1.449   125 C    1.429   124 H    0.971
                           129 C    0.113
   124   1 H    0.998 --   123 C    0.971
   125   6 C    3.988 --   127 C    1.441   123 C    1.429   126 H    0.964
                           120 C    0.111
   126   1 H    0.999 --   125 C    0.964
   127   6 C    3.991 --   129 C    1.443   125 C    1.441   128 H    0.970
                           121 C    0.107
   128   1 H    0.999 --   127 C    0.970
   129   6 C    3.988 --   127 C    1.443   120 C    1.410   130 H    0.968
                           123 C    0.113
   130   1 H    0.999 --   129 C    0.968
   131   6 C    3.871 --   132 O    1.909   115 C    0.959   284 H    0.937
   132   8 O    2.049 --   131 C    1.909
   133   7 N    2.998 --   135 C    1.031   285 H    0.951   134 H    0.945
   134   1 H    0.965 --   133 N    0.945
   135   6 C    3.976 --   133 N    1.031   151 C    0.998   136 H    0.940
                           137 C    0.916
   136   1 H    0.989 --   135 C    0.940
   137   6 C    3.973 --   140 C    1.014   139 H    0.970   138 H    0.960
                           135 C    0.916
   138   1 H    0.995 --   137 C    0.960
   139   1 H    0.996 --   137 C    0.970
   140   6 C    3.986 --   141 C    1.411   149 C    1.402   137 C    1.014
                           145 C    0.112
   141   6 C    3.987 --   143 C    1.442   140 C    1.411   142 H    0.967
                           147 C    0.108
   142   1 H    0.999 --   141 C    0.967
   143   6 C    3.988 --   141 C    1.442   145 C    1.437   144 H    0.970
                           149 C    0.110
   144   1 H    0.998 --   143 C    0.970
   145   6 C    3.981 --   143 C    1.437   147 C    1.430   146 H    0.972
                           140 C    0.112
   146   1 H    0.997 --   145 C    0.972
   147   6 C    3.991 --   149 C    1.454   145 C    1.430   148 H    0.971
                           141 C    0.108
   148   1 H    0.998 --   147 C    0.971
   149   6 C    3.988 --   147 C    1.454   140 C    1.402   150 H    0.969
                           143 C    0.110
   150   1 H    0.997 --   149 C    0.969
   151   6 C    3.893 --   152 O    1.875   135 C    0.998   286 H    0.941
   152   8 O    2.047 --   151 C    1.875
   153   7 N    2.993 --   155 C    1.016   154 H    0.949   287 H    0.947
   154   1 H    0.967 --   153 N    0.949
   155   6 C    3.967 --   153 N    1.016   157 C    0.978   156 H    0.951
                           166 C    0.934
   156   1 H    0.989 --   155 C    0.951
   157   6 C    3.991 --   160 C    0.998   155 C    0.978   158 H    0.971
                           159 H    0.968
   158   1 H    0.997 --   157 C    0.971
   159   1 H    0.996 --   157 C    0.968
   160   6 C    3.989 --   157 C    0.998   162 H    0.977   161 H    0.972
                           163 C    0.940
   161   1 H    0.998 --   160 C    0.972
   162   1 H    0.998 --   160 C    0.977
   163   6 C    3.927 --   165 O    1.484   164 O    1.482   160 C    0.940
   164   8 O    1.755 --   163 C    1.482   165 O    0.207
   165   8 O    1.758 --   163 C    1.484   164 O    0.207
   166   6 C    3.926 --   167 O    1.616   168 N    1.300   155 C    0.934
   167   8 O    1.904 --   166 C    1.616   168 N    0.186
   168   7 N    3.462 --   166 C    1.300   170 C    0.990   169 H    0.904
                           167 O    0.186
   169   1 H    0.952 --   168 N    0.904
   170   6 C    3.966 --   168 N    0.990   172 C    0.955   182 C    0.947
                           171 H    0.938
   171   1 H    0.994 --   170 C    0.938
   172   6 C    3.989 --   178 C    1.009   174 C    1.007   173 H    0.962
                           170 C    0.955
   173   1 H    0.996 --   172 C    0.962
   174   6 C    3.993 --   172 C    1.007   175 H    0.985   176 H    0.983
                           177 H    0.980
   175   1 H    0.998 --   174 C    0.985
   176   1 H    0.998 --   174 C    0.983
   177   1 H    0.996 --   174 C    0.980
   178   6 C    3.991 --   172 C    1.009   180 H    0.985   179 H    0.980
                           181 H    0.980
   179   1 H    0.997 --   178 C    0.980
   180   1 H    0.998 --   178 C    0.985
   181   1 H    0.996 --   178 C    0.980
   182   6 C    3.947 --   183 O    1.611   184 N    1.302   170 C    0.947
   183   8 O    1.914 --   182 C    1.611   184 N    0.187
   184   7 N    3.467 --   182 C    1.302   186 C    0.980   185 H    0.919
                           183 O    0.187
   185   1 H    0.957 --   184 N    0.919
   186   6 C    3.960 --   201 C    0.982   184 N    0.980   188 C    0.942
                           187 H    0.941
   187   1 H    0.992 --   186 C    0.941
   188   6 C    3.982 --   190 C    1.005   194 C    0.998   189 H    0.959
                           186 C    0.942
   189   1 H    0.995 --   188 C    0.959
   190   6 C    3.977 --   188 C    1.005   191 H    0.981   193 H    0.976
                           192 H    0.972
   191   1 H    0.997 --   190 C    0.981
   192   1 H    0.996 --   190 C    0.972
   193   1 H    0.997 --   190 C    0.976
   194   6 C    3.991 --   197 C    1.011   188 C    0.998   196 H    0.974
                           195 H    0.973
   195   1 H    0.998 --   194 C    0.973
   196   1 H    0.998 --   194 C    0.974
   197   6 C    3.994 --   194 C    1.011   200 H    0.990   199 H    0.987
                           198 H    0.986
   198   1 H    0.997 --   197 C    0.986
   199   1 H    0.997 --   197 C    0.987
   200   1 H    0.998 --   197 C    0.990
   201   6 C    3.888 --   202 O    1.890   186 C    0.982   288 H    0.936
   202   8 O    2.046 --   201 C    1.890
   203   7 N    3.008 --   205 C    1.040   204 H    0.951   289 H    0.948
   204   1 H    0.966 --   203 N    0.951
   205   6 C    3.977 --   203 N    1.040   222 C    0.971   207 C    0.951
                           206 H    0.919
   206   1 H    0.990 --   205 C    0.919
   207   6 C    3.982 --   210 C    1.008   209 H    0.971   208 H    0.961
                           205 C    0.951
   208   1 H    0.995 --   207 C    0.961
   209   1 H    0.996 --   207 C    0.971
   210   6 C    3.984 --   220 C    1.413   211 C    1.400   207 C    1.008
   211   6 C    3.987 --   213 C    1.458   210 C    1.400   212 H    0.969
                           218 C    0.107
   212   1 H    0.998 --   211 C    0.969
   213   6 C    3.986 --   211 C    1.458   215 C    1.358   214 H    0.965
                           220 C    0.106
   214   1 H    0.999 --   213 C    0.965
   215   6 C    3.928 --   218 C    1.371   213 C    1.358   216 O    1.065
   216   8 O    2.095 --   215 C    1.065   217 H    0.870
   217   1 H    0.895 --   216 O    0.870
   218   6 C    3.984 --   220 C    1.445   215 C    1.371   219 H    0.968
                           211 C    0.107
   219   1 H    0.997 --   218 C    0.968
   220   6 C    3.985 --   218 C    1.445   210 C    1.413   221 H    0.966
                           213 C    0.106
   221   1 H    0.996 --   220 C    0.966
   222   6 C    3.864 --   223 O    1.877   205 C    0.971   290 H    0.932
   223   8 O    2.034 --   222 C    1.877
   224   7 N    2.991 --   226 C    1.015   291 H    0.948   225 H    0.914
   225   1 H    0.960 --   224 N    0.914
   226   6 C    3.976 --   224 N    1.015   239 C    0.981   227 H    0.957
                           228 C    0.942
   227   1 H    0.988 --   226 C    0.957
   228   6 C    3.972 --   231 C    1.010   230 H    0.965   229 H    0.960
                           226 C    0.942
   229   1 H    0.993 --   228 C    0.960
   230   1 H    0.996 --   228 C    0.965
   231   6 C    3.967 --   237 C    1.575   232 N    1.248   228 C    1.010
   232   7 N    2.985 --   233 C    1.544   231 C    1.248   235 N    0.108
   233   6 C    3.958 --   232 N    1.544   235 N    1.285   234 H    0.965
                           237 C    0.109
   234   1 H    0.998 --   233 C    0.965
   235   7 N    3.587 --   233 C    1.285   237 C    1.199   236 H    0.919
                           232 N    0.108
   236   1 H    0.947 --   235 N    0.919
   237   6 C    3.927 --   231 C    1.575   235 N    1.199   238 H    0.957
                           233 C    0.109
   238   1 H    0.996 --   237 C    0.957
   239   6 C    3.880 --   240 O    1.895   226 C    0.981   292 H    0.940
   240   8 O    2.062 --   239 C    1.895
   241   7 N    2.974 --   243 C    1.023   293 H    0.945   242 H    0.940
   242   1 H    0.964 --   241 N    0.940
   243   6 C    3.968 --   241 N    1.023   244 H    0.952   245 C    0.945
                           258 C    0.944
   244   1 H    0.983 --   243 C    0.952
   245   6 C    3.972 --   247 C    1.010   251 C    0.994   246 H    0.962
                           243 C    0.945
   246   1 H    0.997 --   245 C    0.962
   247   6 C    3.991 --   245 C    1.010   249 H    0.977   250 H    0.975
                           248 H    0.972
   248   1 H    0.998 --   247 C    0.972
   249   1 H    0.996 --   247 C    0.977
   250   1 H    0.997 --   247 C    0.975
   251   6 C    3.994 --   254 C    1.015   245 C    0.994   252 H    0.976
                           253 H    0.976
   252   1 H    0.998 --   251 C    0.976
   253   1 H    0.999 --   251 C    0.976
   254   6 C    3.988 --   251 C    1.015   255 H    0.986   257 H    0.984
                           256 H    0.977
   255   1 H    0.999 --   254 C    0.986
   256   1 H    0.998 --   254 C    0.977
   257   1 H    0.997 --   254 C    0.984
   258   6 C    3.941 --   259 O    1.606   260 N    1.318   243 C    0.944
   259   8 O    1.909 --   258 C    1.606   260 N    0.191
   260   7 N    3.494 --   258 C    1.318   262 C    0.971   261 H    0.891
                           259 O    0.191
   261   1 H    0.945 --   260 N    0.891
   262   6 C    3.960 --   260 N    0.971   277 C    0.965   264 C    0.963
                           263 H    0.954
   263   1 H    0.993 --   262 C    0.954
   264   6 C    3.982 --   266 C    1.004   270 C    0.994   262 C    0.963
                           265 H    0.951
   265   1 H    0.994 --   264 C    0.951
Note: The following floating-point exceptions are signalling: IEEE_UNDERFLOW_FLAG IEEE_DENORMAL
normal termination of xtb
   266   6 C    3.992 --   264 C    1.004   269 H    0.986   268 H    0.983
                           267 H    0.978
   267   1 H    0.996 --   266 C    0.978
   268   1 H    0.999 --   266 C    0.983
   269   1 H    0.998 --   266 C    0.986
   270   6 C    3.993 --   273 C    1.019   264 C    0.994   272 H    0.975
                           271 H    0.969
   271   1 H    0.999 --   270 C    0.969
   272   1 H    0.998 --   270 C    0.975
   273   6 C    3.993 --   270 C    1.019   274 H    0.985   275 H    0.982
                           276 H    0.982
   274   1 H    0.998 --   273 C    0.985
   275   1 H    0.998 --   273 C    0.982
   276   1 H    0.998 --   273 C    0.982
   277   6 C    3.874 --   278 O    1.880   262 C    0.965   294 H    0.939
   278   8 O    2.063 --   277 C    1.880
   279   1 H    0.952 --    60 N    0.937
   280   1 H    0.994 --    79 C    0.934
   281   1 H    0.960 --    81 N    0.946
   282   1 H    0.995 --   111 C    0.941
   283   1 H    0.960 --   113 N    0.946
   284   1 H    0.993 --   131 C    0.937
   285   1 H    0.967 --   133 N    0.951
   286   1 H    0.996 --   151 C    0.941
   287   1 H    0.964 --   153 N    0.947
   288   1 H    0.994 --   201 C    0.936
   289   1 H    0.962 --   203 N    0.948
   290   1 H    0.992 --   222 C    0.932
   291   1 H    0.963 --   224 N    0.948
   292   1 H    0.994 --   239 C    0.940
   293   1 H    0.960 --   241 N    0.945
   294   1 H    0.994 --   277 C    0.939
 ---------------------------------------------------------------------------

Topologies differ in total number of bonds
Writing topology from bond orders to xtbtopo.mol

molecular dipole:
                 x           y           z       tot (Debye)
 q only:      -56.072     -43.302    -108.112
   full:      -55.860     -44.130    -106.848     326.337
molecular quadrupole (traceless):
                xx          xy          yy          xz          yz          zz
 q only:     3347.507   -3851.073    5395.587   -9143.722   -6977.769   -8743.094
  q+dip:     3285.006   -3886.047    5218.859   -9026.952   -7030.731   -8503.864
   full:     3288.703   -3886.364    5222.366   -9028.420   -7026.220   -8511.070


           -------------------------------------------------
          | TOTAL ENERGY             -448.636149592552 Eh   |
          | GRADIENT NORM               0.341408360742 Eh/α |
          | HOMO-LUMO GAP               0.299209213822 eV   |
           -------------------------------------------------

------------------------------------------------------------------------
 * finished run on 2026/01/05 at 09:06:41.199     
------------------------------------------------------------------------
 total:
 * wall-time:     0 d,  0 h,  0 min,  3.635 sec
 *  cpu-time:     0 d,  0 h,  0 min, 52.423 sec
 * ratio c/w:    14.423 speedup
 SCF:
 * wall-time:     0 d,  0 h,  0 min,  3.525 sec
 *  cpu-time:     0 d,  0 h,  0 min, 50.849 sec
 * ratio c/w:    14.426 speedup

