      -----------------------------------------------------------      
     |                   =====================                   |     
     |                           x T B                           |     
     |                   =====================                   |     
     |                         S. Grimme                         |     
     |          Mulliken Center for Theoretical Chemistry        |     
     |                    University of Bonn                     |     
      -----------------------------------------------------------      

   * xtb version 6.7.1 (edcfbbe) compiled by 'conda@c0858423619e' on 2025-09-04

   xtb is free software: you can redistribute it and/or modify it under
   the terms of the GNU Lesser General Public License as published by
   the Free Software Foundation, either version 3 of the License, or
   (at your option) any later version.
   
   xtb is distributed in the hope that it will be useful,
   but WITHOUT ANY WARRANTY; without even the implied warranty of
   MERCHANTABILITY or FITNESS FOR A PARTICULAR PURPOSE.  See the
   GNU Lesser General Public License for more details.
   
   Cite this work as:
   * C. Bannwarth, E. Caldeweyher, S. Ehlert, A. Hansen, P. Pracht,
     J. Seibert, S. Spicher, S. Grimme, WIREs Comput. Mol. Sci., 2020, 11,
     e01493. DOI: 10.1002/wcms.1493
   
   for GFN2-xTB:
   * C. Bannwarth, S. Ehlert and S. Grimme., J. Chem. Theory Comput., 2019,
     15, 1652-1671. DOI: 10.1021/acs.jctc.8b01176
   for GFN1-xTB:
   * S. Grimme, C. Bannwarth, P. Shushkov, J. Chem. Theory Comput., 2017,
     13, 1989-2009. DOI: 10.1021/acs.jctc.7b00118
   for GFN0-xTB:
   * P. Pracht, E. Caldeweyher, S. Ehlert, S. Grimme, ChemRxiv, 2019, preprint.
     DOI: 10.26434/chemrxiv.8326202.v1
   for GFN-FF:
   * S. Spicher and S. Grimme, Angew. Chem. Int. Ed., 2020, 59, 15665-15673.
     DOI: 10.1002/anie.202004239
   
   for ALPB and GBSA implicit solvation:
   * S. Ehlert, M. Stahn, S. Spicher, S. Grimme, J. Chem. Theory Comput.,
     2021, 17, 4250-4261. DOI: 10.1021/acs.jctc.1c00471
   
   for ddCOSMO and CPCM-X implicit solvation:
   * M. Stahn, S. Ehlert, S. Grimme, J. Phys. Chem. A,
     2023, XX, XXXX-XXXX. DOI: 10.1021/acs.jpca.3c04382
   
   for DFT-D4:
   * E. Caldeweyher, C. Bannwarth and S. Grimme, J. Chem. Phys., 2017,
     147, 034112. DOI: 10.1063/1.4993215
   * E. Caldeweyher, S. Ehlert, A. Hansen, H. Neugebauer, S. Spicher,
     C. Bannwarth and S. Grimme, J. Chem. Phys., 2019, 150, 154122.
     DOI: 10.1063/1.5090222
   * E. Caldeweyher, J.-M. Mewes, S. Ehlert and S. Grimme, Phys. Chem. Chem. Phys.
     2020, 22, 8499-8512. DOI: 10.1039/D0CP00502A
   
   for sTDA-xTB:
   * S. Grimme and C. Bannwarth, J. Chem. Phys., 2016, 145, 054103.
     DOI: 10.1063/1.4959605
   
   in the mass-spec context:
   * V. Asgeirsson, C. Bauer and S. Grimme, Chem. Sci., 2017, 8, 4879.
     DOI: 10.1039/c7sc00601b
   * J. Koopman and S. Grimme, ACS Omega 2019, 4, 12, 15120-15133.
     DOI: 10.1021/acsomega.9b02011
   
   for metadynamics refer to:
   * S. Grimme, J. Chem. Theory Comput., 2019, 155, 2847-2862
     DOI: 10.1021/acs.jctc.9b00143
   
   for SPH calculations refer to:
   * S. Spicher and S. Grimme, J. Chem. Theory Comput., 2021, 17, 1701-1714
     DOI: 10.1021/acs.jctc.0c01306
   
   for ONIOM refer to:
   * C. Plett, A. Katbashev, S. Ehlert, S. Grimme, M. Bursch,
     Phys. Chem. Chem. Phys., 2023, 25, 17860-17868. DOI: 10.1039/D3CP02178E
   
   for DIPRO refer to:
   * J. Kohn, N. Gildemeister, S. Grimme, D. Fazzi, A. Hansen,
     J. Chem. Phys., 2023, just accepted.
   
   for PTB refer to:
   * S. Grimme, M. Mueller, A. Hansen, J. Chem. Phys., 2023, 158, 124111.
     DOI: 10.1063/5.0137838
   
   with help from (in alphabetical order)
   P. Atkinson, C. Bannwarth, F. Bohle, G. Brandenburg, E. Caldeweyher
   M. Checinski, S. Dohm, S. Ehlert, S. Ehrlich, I. Gerasimov, C. Hölzer
   A. Katbashev, J. Kohn, J. Koopman, C. Lavigne, S. Lehtola, F. März, M. Müller,
   F. Musil, H. Neugebauer, J. Pisarek, C. Plett, P. Pracht, F. Pultar,
   J. Seibert, P. Shushkov, S. Spicher, M. Stahn, M. Steiner, T. Strunk,
   J. Stückrath, T. Rose, and J. Unsleber
   
 * started run on 2026/01/05 at 09:07:56.373     
   ID    Z sym.   atoms
    1    6 C      1, 3-11, 14-16, 18, 20, 21, 24-29, 32, 62, 64, 67, 68, 70,
                  72, 75, 77, 79, 83, 85, 88, 89, 91, 93, 95, 97, 99, 103,
                  105, 108, 111, 115, 117, 120, 123, 128, 135, 139, 141, 144,
                  145, 147, 149, 151, 153, 155, 159, 161, 164, 167, 170, 174,
                  176, 178, 182, 186, 190, 192, 194, 198, 201, 205, 209, 211,
                  214, 215, 217, 219, 222, 224, 226, 230, 232, 235, 237, 241,
                  243, 247, 249, 251, 255, 258, 262, 266, 268, 270, 274, 277,
                  281
    2    7 N      2, 22, 60, 81, 101, 113, 126, 129, 132, 137, 157, 172, 188,
                  207, 228, 236, 239, 245, 264
    3    8 O      12, 13, 17, 30, 31, 73, 80, 100, 109, 110, 112, 136, 156,
                  168, 169, 171, 187, 206, 220, 227, 244, 263, 282
    4   16 S      19, 23
    5    1 H      33-59, 61, 63, 65, 66, 69, 71, 74, 76, 78, 82, 84, 86, 87,
                  90, 92, 94, 96, 98, 102, 104, 106, 107, 114, 116, 118, 119,
                  121, 122, 124, 125, 127, 130, 131, 133, 134, 138, 140, 142,
                  143, 146, 148, 150, 152, 154, 158, 160, 162, 163, 165, 166,
                  173, 175, 177, 179-181, 183-185, 189, 191, 193, 195-197,
                  199, 200, 202-204, 208, 210, 212, 213, 216, 218, 221, 223,
                  225, 229, 231, 233, 234, 238, 240, 242, 246, 248, 250,
                  252-254, 256, 257, 259-261, 265, 267, 269, 271-273, 275,
                  276, 278-280, 283-298

           -------------------------------------------------
          |                Calculation Setup                |
           -------------------------------------------------

          program call               : xtb /home/antonio_mesquita/Documentos/gmx_ISA_project/testes_arquivos_primeiros/gmx_ISA_testes/testes_qm_xtb/QM_analysis/QM_FRAMES_CAPPED/frame_800ps/complex_capped_800ps.xyz --gfn 2 --alpb water --chrg 0 --etemp 1500 --cycles 1000
          coordinate file            : /home/antonio_mesquita/Documentos/gmx_ISA_project/testes_arquivos_primeiros/gmx_ISA_testes/testes_qm_xtb/QM_analysis/QM_FRAMES_CAPPED/frame_800ps/complex_capped_800ps.xyz
          omp threads                :                    16


molecular fragmentation (1/2 indicates fragments):
111111111111111111111111111111111111111111111111111111111112222222222222
222222222222222222222222222222222222222222222222222222222222222222222222
222222222222222222222222222222222222222222222222222222222222222222222222
222222222222222222222222222222222222222222222222222222222222222222222222
2222222222
# atoms in fragment 1/2:    59   239
 fragment masses (1/2) :      475.60     1611.95
CMA distance (Bohr)    :   7.479
constraining FC (au)   :  0.0500

           -------------------------------------------------
          |                 G F N 2 - x T B                 |
           -------------------------------------------------

        Reference                      10.1021/acs.jctc.8b01176
      * Hamiltonian:
        H0-scaling (s, p, d)           1.850000    2.230000    2.230000
        zeta-weighting                 0.500000
      * Dispersion:
        s8                             2.700000
        a1                             0.520000
        a2                             5.000000
        s9                             5.000000
      * Repulsion:
        kExp                           1.500000    1.000000
        rExp                           1.000000
      * Coulomb:
        alpha                          2.000000
        third order                    shell-resolved
        anisotropic                    true
        a3                             3.000000
        a5                             4.000000
        cn-shift                       1.200000
        cn-exp                         4.000000
        max-rad                        5.000000

      * Solvation model:               ALPB
        Solvent                        water
        Parameter file                 internal GFN2-xTB/ALPB
        Dielectric constant                8.0200E+01
        Reference state                gsolv [1 M gas/solution]
        Free energy shift                  1.0808E-03 Eh       6.7819E-01 kcal/mol
        Temperature                        2.9815E+02 K
        Density                            1.0000E+00 kg/L
        Solvent mass                       1.8000E+01 g/mol
        Interaction kernel             P16
        Born radius scaling (c1)           1.4744E+00
        Born radii integrator          GBOBC
        Born offset                        0.0000E+00 a0       0.0000E+00 AA
        H-bond correction              true
        Ion screening                  false
        Surface tension                    1.0000E-05 Eh       1.5569E+01 dyn/cm
        Grid points                               230 per atom

          ...................................................
          :                      SETUP                      :
          :.................................................:
          :  # basis functions                 751          :
          :  # atomic orbitals                 749          :
          :  # shells                          447          :
          :  # electrons                       808          :
          :  max. iterations                   250          :
          :  Hamiltonian                  GFN2-xTB          :
          :  restarted?                      false          :
          :  GBSA solvation                   true          :
          :  PC potential                    false          :
          :  electronic temp.         1500.0000000     K    :
          :  accuracy                    1.0000000          :
          :  -> integral cutoff          0.2500000E+02      :
          :  -> integral neglect         0.1000000E-07      :
          :  -> SCF convergence          0.1000000E-05 Eh   :
          :  -> wf. convergence          0.1000000E-03 e    :
          :  Broyden damping             0.4000000          :
          :  net charge                          0          :
          :  unpaired electrons                  0          :
          ...................................................

 iter      E             dE          RMSdq      gap      omega  full diag
   1   -457.4928948 -0.457493E+03  0.446E+00    0.10       0.0  T
   2   -458.1552740 -0.662379E+00  0.254E+00    1.42       1.0  T
   3   -458.0192635  0.136011E+00  0.170E+00    0.06       1.0  T
   4   -458.3413142 -0.322051E+00  0.803E-01    0.42       1.0  T
   5   -458.3652070 -0.238928E-01  0.598E-01    0.05       1.0  T
   6   -458.4721537 -0.106947E+00  0.204E-01    0.37       1.0  T
   7   -458.4680222  0.413143E-02  0.196E-01    0.19       1.0  T
   8   -458.4753639 -0.734169E-02  0.123E-01    0.37       1.0  T
   9   -458.4786664 -0.330248E-02  0.557E-02    0.28       1.0  T
  10   -458.4781541  0.512285E-03  0.626E-02    0.33       1.0  T
  11   -458.4791382 -0.984114E-03  0.253E-02    0.32       1.0  T
  12   -458.4790966  0.416852E-04  0.258E-02    0.29       1.0  T
  13   -458.4793039 -0.207336E-03  0.782E-03    0.30       1.0  T
  14   -458.4793066 -0.269062E-05  0.596E-03    0.30       1.0  T
  15   -458.4793129 -0.631538E-05  0.323E-03    0.31       1.8  T
  16   -458.4793143 -0.139742E-05  0.227E-03    0.31       2.6  T
  17   -458.4793156 -0.132804E-05  0.856E-04    0.30       6.8  T
  18   -458.4793155  0.106303E-06  0.884E-04    0.30       6.6  T
  19   -458.4793157 -0.224071E-06  0.347E-04    0.31      16.7  T

   *** convergence criteria satisfied after 19 iterations ***

         #    Occupation            Energy/Eh            Energy/eV
      -------------------------------------------------------------
         1        2.0000           -0.7943464             -21.6153
       ...           ...                  ...                  ...
       398        1.9094           -0.3593081              -9.7773
       399        1.9055           -0.3590998              -9.7716
       400        1.8936           -0.3585037              -9.7554
       401        1.8865           -0.3581783              -9.7465
       402        1.8777           -0.3578019              -9.7363
       403        1.8428           -0.3565209              -9.7014
       404        1.8217           -0.3558690              -9.6837 (HOMO)
       405        0.9805           -0.3446431              -9.3782 (LUMO)
       406        0.0001           -0.2966104              -8.0712
       407        0.0001           -0.2963976              -8.0654
       408        0.0000           -0.2936483              -7.9906
       409        0.0000           -0.2927010              -7.9648
       ...           ...                  ...                  ...
       749                          1.0530438              28.6548
      -------------------------------------------------------------
                  HL-Gap            0.0112258 Eh            0.3055 eV
             Fermi-level           -0.3448284 Eh           -9.3833 eV

 SCC (total)                   0 d,  0 h,  0 min,  3.576 sec
 SCC setup                      ...        0 min,  0.019 sec (  0.533%)
 Dispersion                     ...        0 min,  0.036 sec (  1.011%)
 classical contributions        ...        0 min,  0.004 sec (  0.121%)
 integral evaluation            ...        0 min,  0.056 sec (  1.565%)
 iterations                     ...        0 min,  3.169 sec ( 88.621%)
 molecular gradient             ...        0 min,  0.282 sec (  7.884%)
 printout                       ...        0 min,  0.009 sec (  0.263%)

         :::::::::::::::::::::::::::::::::::::::::::::::::::::
         ::                     SUMMARY                     ::
         :::::::::::::::::::::::::::::::::::::::::::::::::::::
         :: total energy            -452.817028112248 Eh    ::
         :: total w/o Gsasa/hb      -452.783193355702 Eh    ::
         :: gradient norm              0.330681954559 Eh/a0 ::
         :: HOMO-LUMO gap              0.305470432379 eV    ::
         ::.................................................::
         :: SCC energy              -458.458580401276 Eh    ::
         :: -> isotropic ES            1.167248243561 Eh    ::
         :: -> anisotropic ES         -0.022910551665 Eh    ::
         :: -> anisotropic XC          0.193953723480 Eh    ::
         :: -> dispersion             -0.357433705685 Eh    ::
         :: -> Gsolv                  -0.311037898266 Eh    ::
         ::    -> Gelec               -0.277203141719 Eh    ::
         ::    -> Gsasa                0.010209088237 Eh    ::
         ::    -> Ghb                 -0.045124604482 Eh    ::
         ::    -> Gshift               0.001080759698 Eh    ::
         :: repulsion energy           5.641552289028 Eh    ::
         :: add. restraining           0.000000000000 Eh    ::
         :: total charge               0.000000000003 e     ::
         :::::::::::::::::::::::::::::::::::::::::::::::::::::

           -------------------------------------------------
          |                Property Printout                |
           -------------------------------------------------

    * Orbital Energies and Occupations

         #    Occupation            Energy/Eh            Energy/eV
      -------------------------------------------------------------
         1        2.0000           -0.7943464             -21.6153
       ...           ...                  ...                  ...
       392        1.9987           -0.3797922             -10.3347
       393        1.9964           -0.3748057             -10.1990
       394        1.9920           -0.3710371             -10.0964
       395        1.9831           -0.3674507              -9.9988
       396        1.9790           -0.3664158              -9.9707
       397        1.9356           -0.3609926              -9.8231
       398        1.9094           -0.3593081              -9.7773
       399        1.9055           -0.3590998              -9.7716
       400        1.8936           -0.3585037              -9.7554
       401        1.8865           -0.3581783              -9.7465
       402        1.8777           -0.3578019              -9.7363
       403        1.8428           -0.3565209              -9.7014
       404        1.8217           -0.3558690              -9.6837 (HOMO)
       405        0.9805           -0.3446431              -9.3782 (LUMO)
       406        0.0001           -0.2966104              -8.0712
       407        0.0001           -0.2963976              -8.0654
       408        0.0000           -0.2936483              -7.9906
       409        0.0000           -0.2927010              -7.9648
       410        0.0000           -0.2860432              -7.7836
       411        0.0000           -0.2852190              -7.7612
       412        0.0000           -0.2834406              -7.7128
       413        0.0000           -0.2825689              -7.6891
       414        0.0000           -0.2672501              -7.2722
       415                         -0.2517397              -6.8502
       ...                                ...                  ...
       749                          1.0530438              28.6548
      -------------------------------------------------------------
                  HL-Gap            0.0112258 Eh            0.3055 eV
             Fermi-level           -0.3448284 Eh           -9.3833 eV

     #   Z          covCN         q      C6AA      α(0)
     1   6 C        2.743     0.272    22.406     7.750
     2   7 N        2.689    -0.127    23.767     7.241
     3   6 C        2.871     0.036    27.198     8.549
     4   6 C        3.688     0.079    19.453     6.313
     5   6 C        3.806    -0.075    21.919     6.665
     6   6 C        2.960     0.019    27.577     8.614
     7   6 C        2.921    -0.043    29.071     8.842
     8   6 C        2.916    -0.041    29.024     8.834
     9   6 C        2.914    -0.044    29.081     8.843
    10   6 C        2.910    -0.033    28.823     8.803
    11   6 C        2.922    -0.038    28.954     8.824
    12   8 O        1.705    -0.286    18.758     5.848
    13   8 O        0.856    -0.490    23.568     6.509
    14   6 C        2.709     0.335    21.307     7.556
    15   6 C        3.746    -0.128    23.019     6.844
    16   6 C        3.786     0.006    20.492     6.448
    17   8 O        0.859    -0.437    22.439     6.351
    18   6 C        3.787    -0.024    21.014     6.529
    19  16 S        2.001    -0.171   148.282    20.495
    20   6 C        3.789    -0.033    21.173     6.553
    21   6 C        3.907     0.031    19.992     6.355
    22   7 N        2.726    -0.314    28.069     7.869
    23  16 S        3.781     1.177   101.713    16.974
    24   6 C        2.970    -0.096    30.399     9.044
    25   6 C        2.945    -0.025    28.634     8.776
    26   6 C        2.916    -0.033    28.819     8.803
    27   6 C        2.961     0.039    27.120     8.542
    28   6 C        2.920    -0.028    28.699     8.785
    29   6 C        2.939    -0.023    28.578     8.768
    30   8 O        0.860    -0.630    26.874     6.950
    31   8 O        0.860    -0.672    27.957     7.089
    32   6 C        3.754    -0.137    23.196     6.867
    33   1 H        0.864     0.234     0.946     1.524
    34   1 H        0.923     0.052     2.298     2.371
    35   1 H        0.925     0.073     2.057     2.243
    36   1 H        0.924     0.088     1.895     2.153
    37   1 H        0.924     0.111     1.689     2.032
    38   1 H        0.924     0.050     2.318     2.381
    39   1 H        0.925     0.055     2.259     2.351
    40   1 H        0.925     0.055     2.261     2.351
    41   1 H        0.925     0.029     2.600     2.522
    42   1 H        0.925     0.028     2.608     2.526
    43   1 H        0.924     0.069     2.099     2.266
    44   1 H        0.923     0.064     2.152     2.294
    45   1 H        0.924     0.060     2.203     2.321
    46   1 H        0.924     0.069     2.094     2.263
    47   1 H        0.923     0.058     2.226     2.333
    48   1 H        0.924     0.040     2.453     2.449
    49   1 H        0.922     0.094     1.843     2.123
    50   1 H        0.924     0.061     2.183     2.310
    51   1 H        0.923     0.084     1.943     2.180
    52   1 H        0.923     0.088     1.899     2.155
    53   1 H        0.925     0.037     2.483     2.464
    54   1 H        0.925     0.082     1.955     2.186
    55   1 H        0.925     0.094     1.839     2.121
    56   1 H        0.924     0.067     2.114     2.274
    57   1 H        0.924     0.073     2.055     2.242
    58   1 H        0.924     0.072     2.067     2.248
    59   1 H        0.924     0.093     1.846     2.125
    60   7 N        2.632    -0.335    28.631     7.947
    61   1 H        0.860     0.188     1.168     1.693
    62   6 C        3.783     0.038    19.961     6.364
    63   1 H        0.925     0.084     1.938     2.177
    64   6 C        3.814    -0.080    22.014     6.678
    65   1 H        0.925     0.080     1.979     2.200
    66   1 H        0.925     0.061     2.182     2.310
    67   6 C        2.961     0.001    27.999     8.679
    68   6 C        2.910    -0.046    29.141     8.852
    69   1 H        0.926     0.031     2.571     2.507
    70   6 C        2.910    -0.069    29.720     8.939
    71   1 H        0.926     0.017     2.785     2.610
    72   6 C        2.835     0.141    24.922     8.181
    73   8 O        1.660    -0.429    21.425     6.249
    74   1 H        0.806     0.328     0.643     1.259
    75   6 C        2.908    -0.068    29.698     8.936
    76   1 H        0.926     0.066     2.133     2.284
    77   6 C        2.912    -0.043    29.066     8.841
    78   1 H        0.926     0.057     2.229     2.335
    79   6 C        2.759     0.208    23.588     7.953
    80   8 O        0.856    -0.382    21.329     6.192
    81   7 N        2.641    -0.350    29.008     7.999
    82   1 H        0.860     0.167     1.292     1.781
    83   6 C        3.784     0.037    19.970     6.365
    84   1 H        0.924     0.084     1.938     2.177
    85   6 C        3.816    -0.077    21.956     6.669
    86   1 H        0.925     0.080     1.976     2.198
    87   1 H        0.925     0.062     2.172     2.305
    88   6 C        2.959     0.007    27.853     8.656
    89   6 C        2.915    -0.048    29.189     8.859
    90   1 H        0.926     0.055     2.263     2.353
    91   6 C        2.909    -0.038    28.937     8.821
    92   1 H        0.926     0.048     2.346     2.395
    93   6 C        2.912    -0.037    28.916     8.818
    94   1 H        0.927     0.032     2.561     2.503
    95   6 C        2.906    -0.034    28.837     8.805
    96   1 H        0.925     0.017     2.784     2.609
    97   6 C        2.914    -0.039    28.962     8.825
    98   1 H        0.926     0.019     2.753     2.595
    99   6 C        2.752     0.271    22.420     7.754
   100   8 O        0.868    -0.511    24.014     6.570
   101   7 N        2.698    -0.162    24.513     7.353
   102   1 H        0.860     0.206     1.077     1.626
   103   6 C        3.794     0.042    19.871     6.348
   104   1 H        0.925     0.110     1.693     2.035
   105   6 C        3.808    -0.086    22.129     6.696
   106   1 H        0.924     0.030     2.586     2.515
   107   1 H        0.925     0.061     2.193     2.316
   108   6 C        2.692     0.364    20.819     7.467
   109   8 O        0.857    -0.626    26.755     6.935
   110   8 O        0.858    -0.588    25.821     6.813
   111   6 C        2.759     0.205    23.640     7.962
   112   8 O        0.856    -0.374    21.170     6.169
   113   7 N        2.631    -0.352    29.081     8.009
   114   1 H        0.860     0.187     1.175     1.698
   115   6 C        3.784     0.038    19.948     6.362
   116   1 H        0.924     0.092     1.859     2.132
   117   6 C        3.809    -0.070    21.829     6.651
   118   1 H        0.924     0.067     2.124     2.279
   119   1 H        0.924     0.060     2.194     2.316
   120   6 C        3.803    -0.082    22.055     6.686
   121   1 H        0.925     0.067     2.115     2.274
   122   1 H        0.924     0.064     2.150     2.293
   123   6 C        3.736    -0.025    21.111     6.557
   124   1 H        0.925     0.089     1.889     2.149
   125   1 H        0.925     0.091     1.874     2.141
   126   7 N        2.693    -0.141    24.063     7.286
   127   1 H        0.860     0.229     0.969     1.542
   128   6 C        2.734     0.240    22.982     7.849
   129   7 N        2.651    -0.274    27.078     7.728
   130   1 H        0.860     0.243     0.912     1.496
   131   1 H        0.861     0.258     0.852     1.446
   132   7 N        2.653    -0.249    26.479     7.642
   133   1 H        0.860     0.239     0.929     1.510
   134   1 H        0.860     0.225     0.988     1.557
   135   6 C        2.761     0.194    23.849     7.997
   136   8 O        0.856    -0.404    21.761     6.254
   137   7 N        2.635    -0.345    28.890     7.983
   138   1 H        0.860     0.190     1.160     1.687
   139   6 C        3.785     0.040    19.912     6.356
   140   1 H        0.925     0.063     2.168     2.302
   141   6 C        3.811    -0.077    21.963     6.671
   142   1 H        0.924     0.067     2.124     2.279
   143   1 H        0.924     0.085     1.929     2.172
   144   6 C        2.959     0.012    27.736     8.638
   145   6 C        2.916    -0.043    29.078     8.843
   146   1 H        0.925     0.036     2.500     2.472
   147   6 C        2.914    -0.034    28.848     8.807
   148   1 H        0.925     0.027     2.631     2.537
   149   6 C        2.908    -0.036    28.887     8.813
   150   1 H        0.925     0.024     2.677     2.559
   151   6 C        2.910    -0.038    28.945     8.822
   152   1 H        0.926     0.039     2.463     2.454
   153   6 C        2.919    -0.045    29.108     8.847
   154   1 H        0.925     0.051     2.311     2.378
   155   6 C        2.759     0.207    23.597     7.955
   156   8 O        0.856    -0.370    21.098     6.158
   157   7 N        2.643    -0.357    29.199     8.025
   158   1 H        0.860     0.167     1.292     1.780
   159   6 C        3.788     0.029    20.100     6.385
   160   1 H        0.924     0.071     2.079     2.255
   161   6 C        3.821    -0.050    21.461     6.593
   162   1 H        0.924     0.039     2.469     2.457
   163   1 H        0.925     0.039     2.464     2.455
   164   6 C        3.801    -0.082    22.072     6.689
   165   1 H        0.925     0.022     2.708     2.573
   166   1 H        0.924     0.033     2.543     2.494
   167   6 C        2.691     0.368    20.763     7.457
   168   8 O        0.858    -0.648    27.324     7.008
   169   8 O        0.858    -0.654    27.481     7.028
   170   6 C        2.747     0.264    22.543     7.774
   171   8 O        0.863    -0.530    24.449     6.630
   172   7 N        2.699    -0.169    24.665     7.376
   173   1 H        0.860     0.209     1.061     1.613
   174   6 C        3.795     0.025    20.156     6.393
   175   1 H        0.925     0.068     2.110     2.272
   176   6 C        3.855    -0.014    20.795     6.486
   177   1 H        0.924     0.055     2.259     2.350
   178   6 C        3.770    -0.111    22.661     6.784
   179   1 H        0.925     0.047     2.363     2.404
   180   1 H        0.923     0.016     2.790     2.612
   181   1 H        0.924     0.065     2.137     2.286
   182   6 C        3.771    -0.112    22.666     6.784
   183   1 H        0.923     0.059     2.208     2.324
   184   1 H        0.925     0.038     2.470     2.458
   185   1 H        0.924     0.039     2.469     2.457
   186   6 C        2.757     0.273    22.391     7.749
   187   8 O        0.858    -0.510    24.007     6.569
   188   7 N        2.692    -0.159    24.442     7.343
   189   1 H        0.861     0.216     1.029     1.589
   190   6 C        3.791     0.031    20.064     6.379
   191   1 H        0.925     0.092     1.863     2.134
   192   6 C        3.860    -0.017    20.835     6.491
   193   1 H        0.924     0.059     2.211     2.325
   194   6 C        3.755    -0.121    22.874     6.820
   195   1 H        0.925     0.072     2.061     2.245
   196   1 H        0.923     0.049     2.330     2.387
   197   1 H        0.924     0.052     2.290     2.366
   198   6 C        3.806    -0.066    21.752     6.639
   199   1 H        0.924     0.043     2.410     2.428
   200   1 H        0.924     0.042     2.420     2.433
   201   6 C        3.751    -0.118    22.830     6.814
   202   1 H        0.925     0.047     2.363     2.404
   203   1 H        0.925     0.047     2.364     2.404
   204   1 H        0.925     0.043     2.413     2.429
   205   6 C        2.763     0.204    23.664     7.966
   206   8 O        0.856    -0.378    21.254     6.181
   207   7 N        2.633    -0.355    29.138     8.017
   208   1 H        0.860     0.180     1.213     1.725
   209   6 C        3.783     0.033    20.035     6.376
   210   1 H        0.924     0.100     1.789     2.091
   211   6 C        3.812    -0.075    21.916     6.663
   212   1 H        0.925     0.080     1.978     2.199
   213   1 H        0.924     0.061     2.188     2.313
   214   6 C        2.965     0.009    27.824     8.652
   215   6 C        2.905    -0.044    29.092     8.844
   216   1 H        0.926     0.050     2.316     2.380
   217   6 C        2.917    -0.058    29.451     8.899
   218   1 H        0.926     0.022     2.707     2.573
   219   6 C        2.830     0.135    25.051     8.202
   220   8 O        1.659    -0.447    21.772     6.299
   221   1 H        0.805     0.327     0.645     1.262
   222   6 C        2.912    -0.077    29.921     8.970
   223   1 H        0.926     0.051     2.304     2.374
   224   6 C        2.907    -0.047    29.176     8.857
   225   1 H        0.926     0.063     2.162     2.300
   226   6 C        2.755     0.200    23.746     7.980
   227   8 O        0.856    -0.391    21.494     6.216
   228   7 N        2.631    -0.336    28.654     7.950
   229   1 H        0.860     0.185     1.185     1.705
   230   6 C        3.789     0.048    19.782     6.335
   231   1 H        0.924     0.055     2.261     2.352
   232   6 C        3.808    -0.074    21.901     6.662
   233   1 H        0.924     0.075     2.035     2.231
   234   1 H        0.924     0.065     2.144     2.290
   235   6 C        3.098     0.042    26.951     8.508
   236   7 N        1.901    -0.307    28.793     7.955
   237   6 C        3.114     0.080    26.067     8.363
   238   1 H        0.926     0.054     2.264     2.353
   239   7 N        2.757    -0.112    23.440     7.191
   240   1 H        0.860     0.231     0.959     1.534
   241   6 C        3.061    -0.027    28.605     8.771
   242   1 H        0.926     0.037     2.492     2.468
   243   6 C        2.761     0.206    23.632     7.961
   244   8 O        0.859    -0.358    20.860     6.124
   245   7 N        2.633    -0.331    28.518     7.931
   246   1 H        0.860     0.198     1.118     1.657
   247   6 C        3.792     0.027    20.137     6.391
   248   1 H        0.924     0.070     2.083     2.257
   249   6 C        3.859    -0.030    21.061     6.527
   250   1 H        0.925     0.059     2.216     2.328
   251   6 C        3.782    -0.119    22.789     6.800
   252   1 H        0.924     0.050     2.318     2.381
   253   1 H        0.925     0.051     2.310     2.377
   254   1 H        0.924     0.024     2.680     2.560
   255   6 C        3.828    -0.063    21.684     6.626
   256   1 H        0.924     0.019     2.746     2.591
   257   1 H        0.924     0.050     2.321     2.382
   258   6 C        3.754    -0.121    22.883     6.821
   259   1 H        0.925     0.043     2.409     2.427
   260   1 H        0.925     0.043     2.410     2.428
   261   1 H        0.925     0.047     2.362     2.403
   262   6 C        2.748     0.272    22.409     7.751
   263   8 O        0.859    -0.517    24.156     6.590
   264   7 N        2.688    -0.162    24.508     7.352
   265   1 H        0.860     0.238     0.931     1.512
   266   6 C        3.797     0.028    20.106     6.385
   267   1 H        0.925     0.083     1.946     2.182
   268   6 C        3.854    -0.018    20.855     6.495
   269   1 H        0.925     0.069     2.098     2.265
   270   6 C        3.753    -0.119    22.833     6.814
   271   1 H        0.924     0.046     2.365     2.405
   272   1 H        0.925     0.050     2.322     2.383
   273   1 H        0.924     0.054     2.274     2.358
   274   6 C        3.805    -0.058    21.612     6.618
   275   1 H        0.925     0.036     2.504     2.475
   276   1 H        0.925     0.038     2.471     2.458
   277   6 C        3.749    -0.099    22.465     6.760
   278   1 H        0.925     0.038     2.470     2.458
   279   1 H        0.924     0.031     2.570     2.507
   280   1 H        0.925     0.015     2.806     2.620
   281   6 C        2.758     0.207    23.613     7.958
   282   8 O        0.856    -0.364    20.982     6.141
   283   1 H        0.860     0.213     1.041     1.599
   284   1 H        0.923     0.059     2.210     2.325
   285   1 H        0.860     0.196     1.127     1.663
   286   1 H        0.923     0.072     2.062     2.246
   287   1 H        0.860     0.190     1.158     1.686
   288   1 H        0.923     0.061     2.184     2.311
   289   1 H        0.860     0.218     1.019     1.581
   290   1 H        0.923     0.046     2.371     2.408
   291   1 H        0.860     0.194     1.137     1.670
   292   1 H        0.923     0.077     2.007     2.216
   293   1 H        0.860     0.193     1.140     1.672
   294   1 H        0.923     0.073     2.053     2.241
   295   1 H        0.860     0.196     1.126     1.662
   296   1 H        0.923     0.083     1.952     2.185
   297   1 H        0.860     0.199     1.111     1.651
   298   1 H        0.923     0.077     2.012     2.218

 Mol. C6AA /au·bohr⁶  :     899916.415803
 Mol. C8AA /au·bohr⁸  :   20889402.885471
 Mol. α(0) /au        :       1450.054467


Wiberg/Mayer (AO) data.
largest (>0.10) Wiberg bond orders for each atom

 ---------------------------------------------------------------------------
     #   Z sym  total        # sym  WBO       # sym  WBO       # sym  WBO
 ---------------------------------------------------------------------------
     1   6 C    3.892 --    17 O    1.679     2 N    1.181    21 C    0.938
     2   7 N    3.477 --     1 C    1.181     3 C    1.176    33 H    0.870
                            17 O    0.143
     3   6 C    3.471 --     2 N    1.176    14 C    1.082     5 C    1.040
     4   6 C    3.913 --    15 C    1.015    34 H    0.970    35 H    0.967
                            12 O    0.928
     5   6 C    3.972 --     3 C    1.040     6 C    0.978    36 H    0.950
                            37 H    0.923
     6   6 C    3.960 --     7 C    1.415    11 C    1.405     5 C    0.978
                             9 C    0.109
     7   6 C    3.986 --     8 C    1.438     6 C    1.415    38 H    0.965
                            10 C    0.109
     8   6 C    3.988 --     7 C    1.438     9 C    1.425    39 H    0.968
                            11 C    0.113
     9   6 C    3.986 --    10 C    1.433     8 C    1.425    40 H    0.965
                             6 C    0.109
    10   6 C    3.989 --    11 C    1.446     9 C    1.433    41 H    0.965
                             7 C    0.109
    11   6 C    3.986 --    10 C    1.446     6 C    1.405    42 H    0.969
                             8 C    0.113
    12   8 O    2.238 --    14 C    1.102     4 C    0.928    13 O    0.154
    13   8 O    1.871 --    14 C    1.615    12 O    0.154
    14   6 C    3.869 --    13 O    1.615    12 O    1.102     3 C    1.082
    15   6 C    3.984 --     4 C    1.015    43 H    0.985    45 H    0.984
                            44 H    0.982
    16   6 C    3.960 --    18 C    1.001    22 N    0.983    46 H    0.964
                            47 H    0.959
    17   8 O    1.939 --     1 C    1.679     2 N    0.143
    18   6 C    3.974 --    16 C    1.001    19 S    0.987    48 H    0.972
                            49 H    0.964
    19  16 S    2.118 --    20 C    0.989    18 C    0.987
    20   6 C    3.980 --    21 C    0.992    19 S    0.989    50 H    0.972
                            51 H    0.956
    21   6 C    3.966 --    20 C    0.992    22 N    0.986     1 C    0.938
                            52 H    0.913
    22   7 N    3.165 --    21 C    0.986    16 C    0.983    23 S    0.879
    23  16 S    4.789 --    30 O    1.560    31 O    1.517    22 N    0.879
                            24 C    0.732
    24   6 C    3.933 --    25 C    1.402    29 C    1.396    23 S    0.732
    25   6 C    3.985 --    26 C    1.445    24 C    1.402    53 H    0.958
                            28 C    0.103
    26   6 C    3.982 --    25 C    1.445    27 C    1.399    54 H    0.961
                            29 C    0.104
    27   6 C    3.979 --    26 C    1.399    28 C    1.398    32 C    1.029
    28   6 C    3.981 --    29 C    1.450    27 C    1.398    55 H    0.957
                            25 C    0.103
    29   6 C    3.978 --    28 C    1.450    24 C    1.396    56 H    0.959
                            26 C    0.104
    30   8 O    1.857 --    23 S    1.560    31 O    0.105
    31   8 O    1.820 --    23 S    1.517    30 O    0.105
    32   6 C    3.984 --    27 C    1.029    57 H    0.973    58 H    0.973
                            59 H    0.957
    33   1 H    0.939 --     2 N    0.870
    34   1 H    0.994 --     4 C    0.970
    35   1 H    0.992 --     4 C    0.967
    36   1 H    0.991 --     5 C    0.950
    37   1 H    0.957 --     5 C    0.923
    38   1 H    0.997 --     7 C    0.965
    39   1 H    0.996 --     8 C    0.968
    40   1 H    0.996 --     9 C    0.965
    41   1 H    0.998 --    10 C    0.965
    42   1 H    0.999 --    11 C    0.969
    43   1 H    0.995 --    15 C    0.985
    44   1 H    0.995 --    15 C    0.982
    45   1 H    0.996 --    15 C    0.984
    46   1 H    0.995 --    16 C    0.964
    47   1 H    0.997 --    16 C    0.959
    48   1 H    0.998 --    18 C    0.972
    49   1 H    0.991 --    18 C    0.964
    50   1 H    0.995 --    20 C    0.972
    51   1 H    0.993 --    20 C    0.956
    52   1 H    0.988 --    21 C    0.913
    53   1 H    0.998 --    25 C    0.958
    54   1 H    0.992 --    26 C    0.961
    55   1 H    0.990 --    28 C    0.957
    56   1 H    0.995 --    29 C    0.959
    57   1 H    0.994 --    32 C    0.973
    58   1 H    0.994 --    32 C    0.973
    59   1 H    0.990 --    32 C    0.957
    60   7 N    2.984 --    62 C    1.035    61 H    0.949   283 H    0.939
    61   1 H    0.965 --    60 N    0.949
    62   6 C    3.978 --    60 N    1.035    79 C    0.995    63 H    0.941
                            64 C    0.918
    63   1 H    0.989 --    62 C    0.941
    64   6 C    3.971 --    67 C    1.014    65 H    0.965    66 H    0.964
                            62 C    0.918
    65   1 H    0.993 --    64 C    0.965
    66   1 H    0.992 --    64 C    0.964
    67   6 C    3.974 --    77 C    1.403    68 C    1.398    64 C    1.014
    68   6 C    3.983 --    70 C    1.454    67 C    1.398    69 H    0.969
                            75 C    0.107
    69   1 H    0.999 --    68 C    0.969
    70   6 C    3.983 --    68 C    1.454    72 C    1.361    71 H    0.968
                            77 C    0.102
    71   1 H    0.999 --    70 C    0.968
    72   6 C    3.925 --    70 C    1.361    75 C    1.356    73 O    1.084
    73   8 O    2.097 --    72 C    1.084    74 H    0.825
    74   1 H    0.892 --    73 O    0.825
    75   6 C    3.976 --    77 C    1.455    72 C    1.356    76 H    0.952
                            68 C    0.107
    76   1 H    0.995 --    75 C    0.952
    77   6 C    3.983 --    75 C    1.455    67 C    1.403    78 H    0.965
                            70 C    0.102
    78   1 H    0.997 --    77 C    0.965
    79   6 C    3.887 --    80 O    1.879    62 C    0.995   284 H    0.938
    80   8 O    2.042 --    79 C    1.879
    81   7 N    2.991 --    83 C    1.023    82 H    0.953   285 H    0.948
    82   1 H    0.972 --    81 N    0.953
    83   6 C    3.972 --    81 N    1.023    85 C    0.956    84 H    0.953
                            99 C    0.938
    84   1 H    0.991 --    83 C    0.953
    85   6 C    3.977 --    88 C    1.009    86 H    0.966    87 H    0.959
                            83 C    0.956
    86   1 H    0.992 --    85 C    0.966
    87   1 H    0.994 --    85 C    0.959
    88   6 C    3.986 --    97 C    1.419    89 C    1.405    85 C    1.009
                            93 C    0.105
    89   6 C    3.987 --    91 C    1.444    88 C    1.405    90 H    0.967
                            95 C    0.113
    90   1 H    0.997 --    89 C    0.967
    91   6 C    3.989 --    89 C    1.444    93 C    1.436    92 H    0.970
                            97 C    0.111
    92   1 H    0.997 --    91 C    0.970
    93   6 C    3.988 --    95 C    1.439    91 C    1.436    94 H    0.972
                            88 C    0.105
    94   1 H    0.998 --    93 C    0.972
    95   6 C    3.990 --    93 C    1.439    97 C    1.432    96 H    0.969
                            89 C    0.113
    96   1 H    0.999 --    95 C    0.969
    97   6 C    3.989 --    95 C    1.432    88 C    1.419    98 H    0.965
                            91 C    0.111
    98   1 H    1.000 --    97 C    0.965
    99   6 C    3.927 --   100 O    1.616   101 N    1.299    83 C    0.938
   100   8 O    1.912 --    99 C    1.616   101 N    0.190
   101   7 N    3.470 --    99 C    1.299   103 C    0.987   102 H    0.915
                           100 O    0.190
   102   1 H    0.958 --   101 N    0.915
   103   6 C    3.970 --   111 C    1.000   101 N    0.987   105 C    0.949
                           104 H    0.923
   104   1 H    0.988 --   103 C    0.923
   105   6 C    3.978 --   106 H    0.970   103 C    0.949   107 H    0.945
                           108 C    0.931
   106   1 H    0.999 --   105 C    0.970
   107   1 H    0.996 --   105 C    0.945
   108   6 C    3.938 --   109 O    1.485   110 O    1.481   105 C    0.931
   109   8 O    1.839 --   108 C    1.485   110 O    0.215
   110   8 O    1.862 --   108 C    1.481   109 O    0.215
   111   6 C    3.890 --   112 O    1.883   103 C    1.000   286 H    0.938
   112   8 O    2.050 --   111 C    1.883
   113   7 N    3.003 --   115 C    1.039   114 H    0.950   287 H    0.949
   114   1 H    0.965 --   113 N    0.950
   115   6 C    3.974 --   113 N    1.039   135 C    0.972   117 C    0.966
                           116 H    0.914
   116   1 H    0.988 --   115 C    0.914
   117   6 C    3.982 --   120 C    1.003   119 H    0.970   118 H    0.969
                           115 C    0.966
   118   1 H    0.995 --   117 C    0.969
   119   1 H    0.996 --   117 C    0.970
   120   6 C    3.989 --   117 C    1.003   123 C    0.998   121 H    0.972
                           122 H    0.970
   121   1 H    0.995 --   120 C    0.972
   122   1 H    0.995 --   120 C    0.970
   123   6 C    3.953 --   120 C    0.998   126 N    0.979   125 H    0.966
                           124 H    0.965
   124   1 H    0.991 --   123 C    0.965
   125   1 H    0.992 --   123 C    0.966
   126   7 N    3.450 --   128 C    1.302   123 C    0.979   127 H    0.918
                           129 N    0.101
   127   1 H    0.947 --   126 N    0.918
   128   6 C    3.974 --   129 N    1.337   132 N    1.305   126 N    1.302
   129   7 N    3.392 --   128 C    1.337   130 H    0.917   131 H    0.851
                           132 N    0.104   126 N    0.101
   130   1 H    0.941 --   129 N    0.917
   131   1 H    0.933 --   129 N    0.851
   132   7 N    3.393 --   128 C    1.305   134 H    0.923   133 H    0.923
                           129 N    0.104
   133   1 H    0.943 --   132 N    0.923
   134   1 H    0.949 --   132 N    0.923
   135   6 C    3.862 --   136 O    1.868   115 C    0.972   288 H    0.937
   136   8 O    2.019 --   135 C    1.868
   137   7 N    3.007 --   139 C    1.016   138 H    0.950   289 H    0.937
   138   1 H    0.964 --   137 N    0.950
   139   6 C    3.975 --   137 N    1.016   140 H    0.967   155 C    0.959
                           141 C    0.946
   140   1 H    0.996 --   139 C    0.967
   141   6 C    3.975 --   144 C    1.009   142 H    0.967   143 H    0.959
                           139 C    0.946
   142   1 H    0.995 --   141 C    0.967
   143   1 H    0.992 --   141 C    0.959
   144   6 C    3.985 --   153 C    1.411   145 C    1.398   141 C    1.009
                           149 C    0.107
   145   6 C    3.987 --   147 C    1.450   144 C    1.398   146 H    0.969
                           151 C    0.112
   146   1 H    0.999 --   145 C    0.969
   147   6 C    3.990 --   145 C    1.450   149 C    1.432   148 H    0.971
                           153 C    0.109
   148   1 H    0.999 --   147 C    0.971
   149   6 C    3.987 --   151 C    1.442   147 C    1.432   150 H    0.971
                           144 C    0.107
   150   1 H    0.999 --   149 C    0.971
   151   6 C    3.989 --   149 C    1.442   153 C    1.436   152 H    0.972
                           145 C    0.112
   152   1 H    0.998 --   151 C    0.972
   153   6 C    3.987 --   151 C    1.436   144 C    1.411   154 H    0.969
                           147 C    0.109
   154   1 H    0.997 --   153 C    0.969
   155   6 C    3.869 --   156 O    1.905   139 C    0.959   290 H    0.939
   156   8 O    2.046 --   155 C    1.905
   157   7 N    3.016 --   159 C    1.031   158 H    0.948   291 H    0.945
   158   1 H    0.972 --   157 N    0.948
   159   6 C    3.980 --   157 N    1.031   161 C    0.978   160 H    0.942
                           170 C    0.932
   160   1 H    0.993 --   159 C    0.942
   161   6 C    3.987 --   164 C    1.005   159 C    0.978   162 H    0.973
                           163 H    0.972
   162   1 H    0.997 --   161 C    0.973
   163   1 H    0.998 --   161 C    0.972
   164   6 C    3.990 --   161 C    1.005   166 H    0.968   165 H    0.964
                           167 C    0.937
   165   1 H    0.999 --   164 C    0.964
   166   1 H    0.999 --   164 C    0.968
   167   6 C    3.930 --   168 O    1.489   169 O    1.482   164 C    0.937
   168   8 O    1.771 --   167 C    1.489   169 O    0.209
   169   8 O    1.757 --   167 C    1.482   168 O    0.209
   170   6 C    3.934 --   171 O    1.600   172 N    1.318   159 C    0.932
   171   8 O    1.903 --   170 C    1.600   172 N    0.193
   172   7 N    3.478 --   170 C    1.318   174 C    0.981   173 H    0.903
                           171 O    0.193
   173   1 H    0.956 --   172 N    0.903
   174   6 C    3.967 --   172 N    0.981   176 C    0.951   186 C    0.950
                           175 H    0.947
   175   1 H    0.995 --   174 C    0.947
   176   6 C    3.989 --   182 C    1.010   178 C    1.005   177 H    0.962
                           174 C    0.951
   177   1 H    0.996 --   176 C    0.962
   178   6 C    3.982 --   176 C    1.005   180 H    0.982   179 H    0.981
                           181 H    0.979
   179   1 H    0.998 --   178 C    0.981
   180   1 H    1.000 --   178 C    0.982
   181   1 H    0.995 --   178 C    0.979
   182   6 C    3.994 --   176 C    1.010   185 H    0.984   183 H    0.984
                           184 H    0.984
   183   1 H    0.996 --   182 C    0.984
   184   1 H    0.999 --   182 C    0.984
   185   1 H    0.999 --   182 C    0.984
   186   6 C    3.951 --   187 O    1.619   188 N    1.305   174 C    0.950
   187   8 O    1.943 --   186 C    1.619   188 N    0.196
   188   7 N    3.478 --   186 C    1.305   190 C    0.977   189 H    0.911
                           187 O    0.196
   189   1 H    0.953 --   188 N    0.911
   190   6 C    3.961 --   205 C    0.982   188 N    0.977   192 C    0.949
                           191 H    0.938
   191   1 H    0.991 --   190 C    0.938
   192   6 C    3.982 --   194 C    1.002   198 C    0.997   193 H    0.959
                           190 C    0.949
   193   1 H    0.996 --   192 C    0.959
   194   6 C    3.986 --   192 C    1.002   196 H    0.981   197 H    0.981
                           195 H    0.976
   195   1 H    0.994 --   194 C    0.976
   196   1 H    0.998 --   194 C    0.981
   197   1 H    0.997 --   194 C    0.981
   198   6 C    3.995 --   201 C    1.014   192 C    0.997   199 H    0.974
                           200 H    0.965
   199   1 H    0.998 --   198 C    0.974
   200   1 H    0.998 --   198 C    0.965
   201   6 C    3.990 --   198 C    1.014   204 H    0.986   203 H    0.986
                           202 H    0.981
   202   1 H    0.998 --   201 C    0.981
   203   1 H    0.998 --   201 C    0.986
   204   1 H    0.998 --   201 C    0.986
   205   6 C    3.888 --   206 O    1.890   190 C    0.982   292 H    0.936
   206   8 O    2.042 --   205 C    1.890
   207   7 N    2.990 --   209 C    1.030   208 H    0.951   293 H    0.947
   208   1 H    0.968 --   207 N    0.951
   209   6 C    3.976 --   207 N    1.030   226 C    0.984   211 C    0.960
                           210 H    0.908
   210   1 H    0.987 --   209 C    0.908
   211   6 C    3.984 --   214 C    1.011   213 H    0.967   209 C    0.960
                           212 H    0.949
   212   1 H    0.991 --   211 C    0.949
   213   1 H    0.996 --   211 C    0.967
   214   6 C    3.984 --   215 C    1.409   224 C    1.398   211 C    1.011
   215   6 C    3.985 --   217 C    1.447   214 C    1.409   216 H    0.968
                           222 C    0.104
   216   1 H    0.997 --   215 C    0.968
   217   6 C    3.987 --   215 C    1.447   219 C    1.369   218 H    0.971
                           224 C    0.110
   218   1 H    0.999 --   217 C    0.971
   219   6 C    3.923 --   217 C    1.369   222 C    1.365   220 O    1.060
   220   8 O    2.086 --   219 C    1.060   221 H    0.852
   221   1 H    0.893 --   220 O    0.852
   222   6 C    3.983 --   224 C    1.456   219 C    1.365   223 H    0.961
                           215 C    0.104
   223   1 H    0.997 --   222 C    0.961
   224   6 C    3.986 --   222 C    1.456   214 C    1.398   225 H    0.963
                           217 C    0.110
   225   1 H    0.996 --   224 C    0.963
   226   6 C    3.872 --   227 O    1.874   209 C    0.984   294 H    0.934
   227   8 O    2.035 --   226 C    1.874
   228   7 N    2.991 --   230 C    1.027   295 H    0.945   229 H    0.931
   229   1 H    0.965 --   228 N    0.931
   230   6 C    3.979 --   228 N    1.027   243 C    0.989   231 H    0.959
                           232 C    0.918
   231   1 H    0.993 --   230 C    0.959
   232   6 C    3.974 --   235 C    1.017   233 H    0.961   234 H    0.959
                           230 C    0.918
   233   1 H    0.994 --   232 C    0.961
   234   1 H    0.995 --   232 C    0.959
   235   6 C    3.970 --   241 C    1.566   236 N    1.255   232 C    1.017
   236   7 N    2.993 --   237 C    1.538   235 C    1.255   239 N    0.106
   237   6 C    3.953 --   236 N    1.538   239 N    1.287   238 H    0.963
                           241 C    0.109
   238   1 H    0.997 --   237 C    0.963
   239   7 N    3.587 --   237 C    1.287   241 C    1.206   240 H    0.918
                           236 N    0.106
   240   1 H    0.946 --   239 N    0.918
   241   6 C    3.936 --   235 C    1.566   239 N    1.206   242 H    0.970
                           237 C    0.109
   242   1 H    0.999 --   241 C    0.970
   243   6 C    3.873 --   244 O    1.866   230 C    0.989   296 H    0.937
   244   8 O    2.075 --   243 C    1.866
   245   7 N    2.973 --   247 C    1.028   297 H    0.945   246 H    0.918
   246   1 H    0.961 --   245 N    0.918
   247   6 C    3.965 --   245 N    1.028   248 H    0.943   249 C    0.943
                           262 C    0.942
   248   1 H    0.989 --   247 C    0.943
   249   6 C    3.963 --   251 C    1.005   255 C    0.995   250 H    0.962
                           247 C    0.943
   250   1 H    0.995 --   249 C    0.962
   251   6 C    3.990 --   249 C    1.005   253 H    0.978   254 H    0.978
                           252 H    0.978
   252   1 H    0.996 --   251 C    0.978
   253   1 H    0.997 --   251 C    0.978
   254   1 H    0.999 --   251 C    0.978
   255   6 C    3.992 --   258 C    1.017   249 C    0.995   256 H    0.978
                           257 H    0.964
   256   1 H    1.000 --   255 C    0.978
   257   1 H    0.995 --   255 C    0.964
   258   6 C    3.994 --   255 C    1.017   259 H    0.987   260 H    0.987
                           261 H    0.982
   259   1 H    0.998 --   258 C    0.987
   260   1 H    0.998 --   258 C    0.987
   261   1 H    0.997 --   258 C    0.982
   262   6 C    3.937 --   263 O    1.619   264 N    1.304   247 C    0.942
   263   8 O    1.922 --   262 C    1.619   264 N    0.196
   264   7 N    3.478 --   262 C    1.304   266 C    0.987   265 H    0.882
Note: The following floating-point exceptions are signalling: IEEE_UNDERFLOW_FLAG IEEE_DENORMAL
normal termination of xtb
                           263 O    0.196
   265   1 H    0.943 --   264 N    0.882
   266   6 C    3.967 --   264 N    0.987   281 C    0.978   267 H    0.952
                           268 C    0.939
   267   1 H    0.993 --   266 C    0.952
   268   6 C    3.986 --   270 C    1.008   274 C    0.994   269 H    0.956
                           266 C    0.939
   269   1 H    0.995 --   268 C    0.956
   270   6 C    3.991 --   268 C    1.008   272 H    0.984   273 H    0.982
                           271 H    0.980
   271   1 H    0.998 --   270 C    0.980
   272   1 H    0.997 --   270 C    0.984
   273   1 H    0.996 --   270 C    0.982
   274   6 C    3.989 --   277 C    1.014   268 C    0.994   276 H    0.974
                           275 H    0.971
   275   1 H    0.999 --   274 C    0.971
   276   1 H    0.998 --   274 C    0.974
   277   6 C    3.990 --   274 C    1.014   280 H    0.987   279 H    0.987
                           278 H    0.983
   278   1 H    0.998 --   277 C    0.983
   279   1 H    0.999 --   277 C    0.987
   280   1 H    0.999 --   277 C    0.987
   281   6 C    3.884 --   282 O    1.892   266 C    0.978   298 H    0.938
   282   8 O    2.057 --   281 C    1.892
   283   1 H    0.955 --    60 N    0.939
   284   1 H    0.995 --    79 C    0.938
   285   1 H    0.961 --    81 N    0.948
   286   1 H    0.994 --   111 C    0.938
   287   1 H    0.963 --   113 N    0.949
   288   1 H    0.993 --   135 C    0.937
   289   1 H    0.952 --   137 N    0.937
   290   1 H    0.994 --   155 C    0.939
   291   1 H    0.962 --   157 N    0.945
   292   1 H    0.994 --   205 C    0.936
   293   1 H    0.962 --   207 N    0.947
   294   1 H    0.992 --   226 C    0.934
   295   1 H    0.961 --   228 N    0.945
   296   1 H    0.991 --   243 C    0.937
   297   1 H    0.960 --   245 N    0.945
   298   1 H    0.993 --   281 C    0.938
 ---------------------------------------------------------------------------

Topologies differ in total number of bonds
Writing topology from bond orders to xtbtopo.mol

molecular dipole:
                 x           y           z       tot (Debye)
 q only:       -0.778     -24.806      -7.942
   full:       -0.120     -23.464      -8.914      63.799
molecular quadrupole (traceless):
                xx          xy          yy          xz          yz          zz
 q only:     2225.597   -2539.963   -2362.788    -971.153   -3998.809     137.191
  q+dip:     2330.811   -2330.404   -2198.162    -977.380   -3921.520    -132.649
   full:     2332.933   -2327.406   -2195.551    -980.057   -3920.133    -137.382


           -------------------------------------------------
          | TOTAL ENERGY             -452.817028112248 Eh   |
          | GRADIENT NORM               0.330681954559 Eh/α |
          | HOMO-LUMO GAP               0.305470432379 eV   |
           -------------------------------------------------

------------------------------------------------------------------------
 * finished run on 2026/01/05 at 09:08:00.080     
------------------------------------------------------------------------
 total:
 * wall-time:     0 d,  0 h,  0 min,  3.707 sec
 *  cpu-time:     0 d,  0 h,  0 min, 53.809 sec
 * ratio c/w:    14.515 speedup
 SCF:
 * wall-time:     0 d,  0 h,  0 min,  3.581 sec
 *  cpu-time:     0 d,  0 h,  0 min, 52.107 sec
 * ratio c/w:    14.552 speedup

