      -----------------------------------------------------------      
     |                   =====================                   |     
     |                           x T B                           |     
     |                   =====================                   |     
     |                         S. Grimme                         |     
     |          Mulliken Center for Theoretical Chemistry        |     
     |                    University of Bonn                     |     
      -----------------------------------------------------------      

   * xtb version 6.7.1 (edcfbbe) compiled by 'conda@c0858423619e' on 2025-09-04

   xtb is free software: you can redistribute it and/or modify it under
   the terms of the GNU Lesser General Public License as published by
   the Free Software Foundation, either version 3 of the License, or
   (at your option) any later version.
   
   xtb is distributed in the hope that it will be useful,
   but WITHOUT ANY WARRANTY; without even the implied warranty of
   MERCHANTABILITY or FITNESS FOR A PARTICULAR PURPOSE.  See the
   GNU Lesser General Public License for more details.
   
   Cite this work as:
   * C. Bannwarth, E. Caldeweyher, S. Ehlert, A. Hansen, P. Pracht,
     J. Seibert, S. Spicher, S. Grimme, WIREs Comput. Mol. Sci., 2020, 11,
     e01493. DOI: 10.1002/wcms.1493
   
   for GFN2-xTB:
   * C. Bannwarth, S. Ehlert and S. Grimme., J. Chem. Theory Comput., 2019,
     15, 1652-1671. DOI: 10.1021/acs.jctc.8b01176
   for GFN1-xTB:
   * S. Grimme, C. Bannwarth, P. Shushkov, J. Chem. Theory Comput., 2017,
     13, 1989-2009. DOI: 10.1021/acs.jctc.7b00118
   for GFN0-xTB:
   * P. Pracht, E. Caldeweyher, S. Ehlert, S. Grimme, ChemRxiv, 2019, preprint.
     DOI: 10.26434/chemrxiv.8326202.v1
   for GFN-FF:
   * S. Spicher and S. Grimme, Angew. Chem. Int. Ed., 2020, 59, 15665-15673.
     DOI: 10.1002/anie.202004239
   
   for ALPB and GBSA implicit solvation:
   * S. Ehlert, M. Stahn, S. Spicher, S. Grimme, J. Chem. Theory Comput.,
     2021, 17, 4250-4261. DOI: 10.1021/acs.jctc.1c00471
   
   for ddCOSMO and CPCM-X implicit solvation:
   * M. Stahn, S. Ehlert, S. Grimme, J. Phys. Chem. A,
     2023, XX, XXXX-XXXX. DOI: 10.1021/acs.jpca.3c04382
   
   for DFT-D4:
   * E. Caldeweyher, C. Bannwarth and S. Grimme, J. Chem. Phys., 2017,
     147, 034112. DOI: 10.1063/1.4993215
   * E. Caldeweyher, S. Ehlert, A. Hansen, H. Neugebauer, S. Spicher,
     C. Bannwarth and S. Grimme, J. Chem. Phys., 2019, 150, 154122.
     DOI: 10.1063/1.5090222
   * E. Caldeweyher, J.-M. Mewes, S. Ehlert and S. Grimme, Phys. Chem. Chem. Phys.
     2020, 22, 8499-8512. DOI: 10.1039/D0CP00502A
   
   for sTDA-xTB:
   * S. Grimme and C. Bannwarth, J. Chem. Phys., 2016, 145, 054103.
     DOI: 10.1063/1.4959605
   
   in the mass-spec context:
   * V. Asgeirsson, C. Bauer and S. Grimme, Chem. Sci., 2017, 8, 4879.
     DOI: 10.1039/c7sc00601b
   * J. Koopman and S. Grimme, ACS Omega 2019, 4, 12, 15120-15133.
     DOI: 10.1021/acsomega.9b02011
   
   for metadynamics refer to:
   * S. Grimme, J. Chem. Theory Comput., 2019, 155, 2847-2862
     DOI: 10.1021/acs.jctc.9b00143
   
   for SPH calculations refer to:
   * S. Spicher and S. Grimme, J. Chem. Theory Comput., 2021, 17, 1701-1714
     DOI: 10.1021/acs.jctc.0c01306
   
   for ONIOM refer to:
   * C. Plett, A. Katbashev, S. Ehlert, S. Grimme, M. Bursch,
     Phys. Chem. Chem. Phys., 2023, 25, 17860-17868. DOI: 10.1039/D3CP02178E
   
   for DIPRO refer to:
   * J. Kohn, N. Gildemeister, S. Grimme, D. Fazzi, A. Hansen,
     J. Chem. Phys., 2023, just accepted.
   
   for PTB refer to:
   * S. Grimme, M. Mueller, A. Hansen, J. Chem. Phys., 2023, 158, 124111.
     DOI: 10.1063/5.0137838
   
   with help from (in alphabetical order)
   P. Atkinson, C. Bannwarth, F. Bohle, G. Brandenburg, E. Caldeweyher
   M. Checinski, S. Dohm, S. Ehlert, S. Ehrlich, I. Gerasimov, C. Hölzer
   A. Katbashev, J. Kohn, J. Koopman, C. Lavigne, S. Lehtola, F. März, M. Müller,
   F. Musil, H. Neugebauer, J. Pisarek, C. Plett, P. Pracht, F. Pultar,
   J. Seibert, P. Shushkov, S. Spicher, M. Stahn, M. Steiner, T. Strunk,
   J. Stückrath, T. Rose, and J. Unsleber
   
 * started run on 2026/01/05 at 09:07:10.858     
   ID    Z sym.   atoms
    1    6 C      1, 3-11, 14-16, 18, 20, 21, 24-29, 32, 62, 64, 67, 68, 70,
                  72, 74, 76, 78, 82, 84, 87, 90, 94, 96, 99, 102, 105, 109,
                  111, 113, 117, 121, 125, 127, 129, 133, 136, 140, 144, 146,
                  149, 150, 152, 154, 157, 159, 161, 165, 167, 170, 172, 176,
                  178, 182, 184, 186, 190, 193, 197, 201, 203, 205, 209, 212,
                  216
    2    7 N      2, 22, 60, 80, 92, 107, 123, 142, 163, 171, 174, 180, 199
    3    8 O      12, 13, 17, 30, 31, 79, 88, 89, 91, 103, 104, 106, 122,
                  141, 155, 162, 179, 198, 217
    4   16 S      19, 23
    5    1 H      33-59, 61, 63, 65, 66, 69, 71, 73, 75, 77, 81, 83, 85, 86,
                  93, 95, 97, 98, 100, 101, 108, 110, 112, 114-116, 118-120,
                  124, 126, 128, 130-132, 134, 135, 137-139, 143, 145, 147,
                  148, 151, 153, 156, 158, 160, 164, 166, 168, 169, 173, 175,
                  177, 181, 183, 185, 187-189, 191, 192, 194-196, 200, 202,
                  204, 206-208, 210, 211, 213-215, 218-227

           -------------------------------------------------
          |                Calculation Setup                |
           -------------------------------------------------

          program call               : xtb /home/antonio_mesquita/Documentos/gmx_ISA_project/testes_arquivos_primeiros/gmx_ISA_testes/testes_qm_xtb/QM_analysis/QM_FRAMES_CAPPED/frame_3200ps/complex_capped_3200ps.xyz --gfn 2 --alpb water --chrg -1 --etemp 1500 --cycles 1000
          coordinate file            : /home/antonio_mesquita/Documentos/gmx_ISA_project/testes_arquivos_primeiros/gmx_ISA_testes/testes_qm_xtb/QM_analysis/QM_FRAMES_CAPPED/frame_3200ps/complex_capped_3200ps.xyz
          omp threads                :                    16


molecular fragmentation (1/2 indicates fragments):
111111111111111111111111111111111111111111111111111111111112222222222222
222222222222222222222222222222222222222222222222222222222222222222222222
222222222222222222222222222222222222222222222222222222222222222222222222
22222222222
# atoms in fragment 1/2:    59   168
 fragment masses (1/2) :      475.60     1138.36
CMA distance (Bohr)    :  10.485
constraining FC (au)   :  0.0500

           -------------------------------------------------
          |                 G F N 2 - x T B                 |
           -------------------------------------------------

        Reference                      10.1021/acs.jctc.8b01176
      * Hamiltonian:
        H0-scaling (s, p, d)           1.850000    2.230000    2.230000
        zeta-weighting                 0.500000
      * Dispersion:
        s8                             2.700000
        a1                             0.520000
        a2                             5.000000
        s9                             5.000000
      * Repulsion:
        kExp                           1.500000    1.000000
        rExp                           1.000000
      * Coulomb:
        alpha                          2.000000
        third order                    shell-resolved
        anisotropic                    true
        a3                             3.000000
        a5                             4.000000
        cn-shift                       1.200000
        cn-exp                         4.000000
        max-rad                        5.000000

      * Solvation model:               ALPB
        Solvent                        water
        Parameter file                 internal GFN2-xTB/ALPB
        Dielectric constant                8.0200E+01
        Reference state                gsolv [1 M gas/solution]
        Free energy shift                  1.0808E-03 Eh       6.7819E-01 kcal/mol
        Temperature                        2.9815E+02 K
        Density                            1.0000E+00 kg/L
        Solvent mass                       1.8000E+01 g/mol
        Interaction kernel             P16
        Born radius scaling (c1)           1.4744E+00
        Born radii integrator          GBOBC
        Born offset                        0.0000E+00 a0       0.0000E+00 AA
        H-bond correction              true
        Ion screening                  false
        Surface tension                    1.0000E-05 Eh       1.5569E+01 dyn/cm
        Grid points                               230 per atom

          ...................................................
          :                      SETUP                      :
          :.................................................:
          :  # basis functions                 578          :
          :  # atomic orbitals                 576          :
          :  # shells                          342          :
          :  # electrons                       622          :
          :  max. iterations                   250          :
          :  Hamiltonian                  GFN2-xTB          :
          :  restarted?                      false          :
          :  GBSA solvation                   true          :
          :  PC potential                    false          :
          :  electronic temp.         1500.0000000     K    :
          :  accuracy                    1.0000000          :
          :  -> integral cutoff          0.2500000E+02      :
          :  -> integral neglect         0.1000000E-07      :
          :  -> SCF convergence          0.1000000E-05 Eh   :
          :  -> wf. convergence          0.1000000E-03 e    :
          :  Broyden damping             0.4000000          :
          :  net charge                         -1          :
          :  unpaired electrons                  0          :
          ...................................................

 iter      E             dE          RMSdq      gap      omega  full diag
   1   -352.5272380 -0.352527E+03  0.461E+00    0.08       0.0  T
   2   -353.1477987 -0.620561E+00  0.268E+00    1.50       1.0  T
   3   -353.0112201  0.136579E+00  0.190E+00    0.22       1.0  T
   4   -353.3517094 -0.340489E+00  0.985E-01    0.25       1.0  T
   5   -353.3890275 -0.373181E-01  0.671E-01    0.05       1.0  T
   6   -353.4336579 -0.446304E-01  0.463E-01    0.50       1.0  T
   7   -353.3937488  0.399091E-01  0.584E-01    0.09       1.0  T
   8   -353.4670596 -0.733108E-01  0.239E-01    0.14       1.0  T
   9   -353.4755614 -0.850182E-02  0.152E-01    0.31       1.0  T
  10   -353.4782066 -0.264520E-02  0.831E-02    0.31       1.0  T
  11   -353.4774734  0.733216E-03  0.975E-02    0.21       1.0  T
  12   -353.4794881 -0.201472E-02  0.352E-02    0.31       1.0  T
  13   -353.4796435 -0.155330E-03  0.230E-02    0.32       1.0  T
  14   -353.4797094 -0.659549E-04  0.143E-02    0.29       1.0  T
  15   -353.4797473 -0.378725E-04  0.748E-03    0.29       1.0  T
  16   -353.4797576 -0.103199E-04  0.220E-03    0.30       3.0  T
  17   -353.4797582 -0.631232E-06  0.124E-03    0.30       5.3  T
  18   -353.4797584 -0.207775E-06  0.777E-04    0.30       8.5  T
  19   -353.4797585 -0.887444E-07  0.381E-04    0.30      17.4  T

   *** convergence criteria satisfied after 19 iterations ***

         #    Occupation            Energy/Eh            Energy/eV
      -------------------------------------------------------------
         1        2.0000           -0.7866669             -21.4063
       ...           ...                  ...                  ...
       305        1.9768           -0.3721465             -10.1266
       306        1.9367           -0.3672802              -9.9942
       307        1.8661           -0.3635439              -9.8925
       308        1.8624           -0.3634054              -9.8888
       309        1.8443           -0.3627722              -9.8715
       310        1.8207           -0.3620381              -9.8516
       311        1.8014           -0.3615036              -9.8370 (HOMO)
       312        0.9485           -0.3505385              -9.5386 (LUMO)
       313        0.0000           -0.2953148              -8.0359
       314        0.0000           -0.2924117              -7.9569
       315        0.0000           -0.2893117              -7.8726
       316        0.0000           -0.2881903              -7.8421
       ...           ...                  ...                  ...
       576                          1.0372285              28.2244
      -------------------------------------------------------------
                  HL-Gap            0.0109651 Eh            0.2984 eV
             Fermi-level           -0.3510286 Eh           -9.5520 eV

 SCC (total)                   0 d,  0 h,  0 min,  2.426 sec
 SCC setup                      ...        0 min,  0.026 sec (  1.062%)
 Dispersion                     ...        0 min,  0.023 sec (  0.949%)
 classical contributions        ...        0 min,  0.004 sec (  0.151%)
 integral evaluation            ...        0 min,  0.053 sec (  2.190%)
 iterations                     ...        0 min,  2.132 sec ( 87.884%)
 molecular gradient             ...        0 min,  0.181 sec (  7.478%)
 printout                       ...        0 min,  0.007 sec (  0.285%)

         :::::::::::::::::::::::::::::::::::::::::::::::::::::
         ::                     SUMMARY                     ::
         :::::::::::::::::::::::::::::::::::::::::::::::::::::
         :: total energy            -349.209339775825 Eh    ::
         :: total w/o Gsasa/hb      -349.194377410909 Eh    ::
         :: gradient norm              0.275990979072 Eh/a0 ::
         :: HOMO-LUMO gap              0.298375766275 eV    ::
         ::.................................................::
         :: SCC energy              -353.460808367680 Eh    ::
         :: -> isotropic ES            1.035320306573 Eh    ::
         :: -> anisotropic ES         -0.006264156445 Eh    ::
         :: -> anisotropic XC          0.139961100039 Eh    ::
         :: -> dispersion             -0.284615413260 Eh    ::
         :: -> Gsolv                  -0.297862005618 Eh    ::
         ::    -> Gelec               -0.282899640701 Eh    ::
         ::    -> Gsasa                0.014963832106 Eh    ::
         ::    -> Ghb                 -0.031006956720 Eh    ::
         ::    -> Gshift               0.001080759698 Eh    ::
         :: repulsion energy           4.251468591855 Eh    ::
         :: add. restraining           0.000000000000 Eh    ::
         :: total charge              -0.999999999236 e     ::
         :::::::::::::::::::::::::::::::::::::::::::::::::::::

           -------------------------------------------------
          |                Property Printout                |
           -------------------------------------------------

    * Orbital Energies and Occupations

         #    Occupation            Energy/Eh            Energy/eV
      -------------------------------------------------------------
         1        2.0000           -0.7866669             -21.4063
       ...           ...                  ...                  ...
       299        1.9993           -0.3890826             -10.5875
       300        1.9939           -0.3785687             -10.3014
       301        1.9935           -0.3782519             -10.2928
       302        1.9928           -0.3777420             -10.2789
       303        1.9843           -0.3740116             -10.1774
       304        1.9802           -0.3729136             -10.1475
       305        1.9768           -0.3721465             -10.1266
       306        1.9367           -0.3672802              -9.9942
       307        1.8661           -0.3635439              -9.8925
       308        1.8624           -0.3634054              -9.8888
       309        1.8443           -0.3627722              -9.8715
       310        1.8207           -0.3620381              -9.8516
       311        1.8014           -0.3615036              -9.8370 (HOMO)
       312        0.9485           -0.3505385              -9.5386 (LUMO)
       313        0.0000           -0.2953148              -8.0359
       314        0.0000           -0.2924117              -7.9569
       315        0.0000           -0.2893117              -7.8726
       316        0.0000           -0.2881903              -7.8421
       317        0.0000           -0.2865484              -7.7974
       318                         -0.2583555              -7.0302
       319                         -0.2506313              -6.8200
       320                         -0.2449845              -6.6664
       321                         -0.2294999              -6.2450
       322                         -0.2286824              -6.2228
       ...                                ...                  ...
       576                          1.0372285              28.2244
      -------------------------------------------------------------
                  HL-Gap            0.0109651 Eh            0.2984 eV
             Fermi-level           -0.3510286 Eh           -9.5520 eV

     #   Z          covCN         q      C6AA      α(0)
     1   6 C        2.744     0.269    22.453     7.759
     2   7 N        2.691    -0.109    23.388     7.183
     3   6 C        2.868     0.038    27.141     8.540
     4   6 C        3.690     0.089    19.277     6.284
     5   6 C        3.806    -0.073    21.884     6.660
     6   6 C        2.971     0.016    27.652     8.625
     7   6 C        2.915    -0.038    28.946     8.822
     8   6 C        2.913    -0.036    28.891     8.814
     9   6 C        2.909    -0.041    29.021     8.833
    10   6 C        2.925    -0.040    29.003     8.832
    11   6 C        2.907    -0.040    28.989     8.828
    12   8 O        1.703    -0.286    18.755     5.847
    13   8 O        0.856    -0.504    23.881     6.552
    14   6 C        2.715     0.331    21.368     7.567
    15   6 C        3.745    -0.120    22.871     6.822
    16   6 C        3.777     0.015    20.350     6.427
    17   8 O        0.859    -0.449    22.684     6.386
    18   6 C        3.790    -0.025    21.029     6.531
    19  16 S        1.961    -0.187   148.999    20.545
    20   6 C        3.792    -0.036    21.226     6.561
    21   6 C        3.885     0.026    20.087     6.372
    22   7 N        2.730    -0.290    27.478     7.785
    23  16 S        3.808     1.140   102.733    17.059
    24   6 C        2.968    -0.092    30.309     9.030
    25   6 C        2.961    -0.030    28.745     8.794
    26   6 C        2.921    -0.027    28.673     8.781
    27   6 C        2.956     0.037    27.165     8.549
    28   6 C        2.921    -0.036    28.900     8.816
    29   6 C        2.926    -0.029    28.734     8.791
    30   8 O        0.860    -0.651    27.405     7.019
    31   8 O        0.859    -0.612    26.411     6.890
    32   6 C        3.753    -0.113    22.730     6.798
    33   1 H        0.860     0.230     0.966     1.540
    34   1 H        0.924     0.044     2.401     2.423
    35   1 H        0.923     0.057     2.239     2.340
    36   1 H        0.924     0.101     1.780     2.087
    37   1 H        0.924     0.105     1.739     2.062
    38   1 H        0.925     0.043     2.415     2.430
    39   1 H        0.924     0.049     2.335     2.389
    40   1 H        0.925     0.061     2.184     2.311
    41   1 H        0.924     0.047     2.352     2.398
    42   1 H        0.924     0.023     2.690     2.565
    43   1 H        0.924     0.077     2.007     2.215
    44   1 H        0.922     0.042     2.426     2.436
    45   1 H        0.924     0.076     2.024     2.225
    46   1 H        0.923     0.043     2.407     2.426
    47   1 H        0.924     0.065     2.141     2.288
    48   1 H        0.924     0.079     1.991     2.207
    49   1 H        0.924     0.079     1.993     2.208
    50   1 H        0.923     0.094     1.839     2.121
    51   1 H        0.924     0.086     1.914     2.164
    52   1 H        0.923     0.103     1.756     2.073
    53   1 H        0.924     0.067     2.123     2.279
    54   1 H        0.925     0.072     2.067     2.248
    55   1 H        0.925     0.075     2.032     2.229
    56   1 H        0.924     0.057     2.231     2.336
    57   1 H        0.922     0.078     2.005     2.214
    58   1 H        0.925     0.060     2.199     2.319
    59   1 H        0.924     0.065     2.140     2.288
    60   7 N        2.634    -0.346    28.911     7.986
    61   1 H        0.860     0.178     1.226     1.735
    62   6 C        3.787     0.031    20.060     6.379
    63   1 H        0.924     0.075     2.026     2.226
    64   6 C        3.813    -0.073    21.894     6.660
    65   1 H        0.924     0.069     2.098     2.265
    66   1 H        0.925     0.058     2.217     2.328
    67   6 C        2.967     0.014    27.703     8.633
    68   6 C        2.912    -0.045    29.109     8.847
    69   1 H        0.926     0.049     2.331     2.388
    70   6 C        2.913    -0.042    29.039     8.836
    71   1 H        0.926     0.044     2.399     2.422
    72   6 C        2.912    -0.044    29.099     8.846
    73   1 H        0.926     0.041     2.437     2.441
    74   6 C        2.912    -0.035    28.881     8.812
    75   1 H        0.925     0.030     2.587     2.515
    76   6 C        2.913    -0.036    28.899     8.815
    77   1 H        0.926     0.025     2.661     2.551
    78   6 C        2.753     0.270    22.443     7.758
    79   8 O        0.861    -0.500    23.784     6.539
    80   7 N        2.700    -0.162    24.502     7.352
    81   1 H        0.860     0.219     1.012     1.576
    82   6 C        3.793     0.046    19.804     6.337
    83   1 H        0.925     0.092     1.862     2.134
    84   6 C        3.818    -0.081    22.026     6.679
    85   1 H        0.924     0.048     2.349     2.397
    86   1 H        0.924     0.079     1.985     2.203
    87   6 C        2.688     0.364    20.828     7.469
    88   8 O        0.857    -0.640    27.129     6.983
    89   8 O        0.857    -0.648    27.336     7.010
    90   6 C        2.775     0.212    23.504     7.940
    91   8 O        0.856    -0.368    21.045     6.151
    92   7 N        2.633    -0.346    28.919     7.987
    93   1 H        0.860     0.183     1.197     1.714
    94   6 C        3.789     0.027    20.126     6.389
    95   1 H        0.924     0.053     2.279     2.361
    96   6 C        3.816    -0.038    21.235     6.558
    97   1 H        0.925     0.028     2.622     2.532
    98   1 H        0.925     0.037     2.483     2.464
    99   6 C        3.803    -0.086    22.148     6.700
   100   1 H        0.924     0.048     2.342     2.393
   101   1 H        0.925     0.050     2.324     2.384
   102   6 C        2.693     0.368    20.761     7.457
   103   8 O        0.858    -0.636    27.027     6.970
   104   8 O        0.856    -0.646    27.270     7.001
   105   6 C        2.754     0.268    22.479     7.764
   106   8 O        0.858    -0.525    24.341     6.615
   107   7 N        2.693    -0.162    24.511     7.353
   108   1 H        0.860     0.223     0.997     1.564
   109   6 C        3.795     0.027    20.131     6.389
   110   1 H        0.925     0.071     2.076     2.253
   111   6 C        3.858    -0.015    20.811     6.488
   112   1 H        0.925     0.065     2.144     2.290
   113   6 C        3.754    -0.108    22.626     6.783
   114   1 H        0.925     0.022     2.701     2.570
   115   1 H        0.924     0.054     2.267     2.355
   116   1 H        0.925     0.040     2.451     2.448
   117   6 C        3.755    -0.116    22.779     6.805
   118   1 H        0.924     0.043     2.409     2.427
   119   1 H        0.925     0.059     2.211     2.325
   120   1 H        0.924     0.041     2.438     2.442
   121   6 C        2.756     0.275    22.355     7.743
   122   8 O        0.862    -0.509    23.975     6.565
   123   7 N        2.693    -0.160    24.462     7.346
   124   1 H        0.860     0.214     1.038     1.596
   125   6 C        3.796     0.028    20.106     6.385
   126   1 H        0.925     0.086     1.915     2.164
   127   6 C        3.857    -0.019    20.881     6.499
   128   1 H        0.925     0.066     2.133     2.284
   129   6 C        3.757    -0.127    22.984     6.835
   130   1 H        0.924     0.052     2.293     2.368
   131   1 H        0.925     0.046     2.376     2.410
   132   1 H        0.925     0.063     2.169     2.303
   133   6 C        3.801    -0.062    21.685     6.630
   134   1 H        0.925     0.044     2.398     2.422
   135   1 H        0.925     0.043     2.405     2.425
   136   6 C        3.751    -0.117    22.808     6.811
   137   1 H        0.926     0.047     2.358     2.401
   138   1 H        0.925     0.052     2.298     2.371
   139   1 H        0.924     0.044     2.391     2.418
   140   6 C        2.756     0.211    23.538     7.945
   141   8 O        0.856    -0.375    21.181     6.170
   142   7 N        2.635    -0.330    28.500     7.929
   143   1 H        0.860     0.191     1.151     1.681
   144   6 C        3.783     0.040    19.913     6.356
   145   1 H        0.925     0.101     1.774     2.083
   146   6 C        3.816    -0.072    21.862     6.655
   147   1 H        0.925     0.061     2.183     2.311
   148   1 H        0.924     0.064     2.152     2.294
   149   6 C        2.971     0.009    27.823     8.652
   150   6 C        2.904    -0.041    29.011     8.832
   151   1 H        0.925     0.052     2.295     2.369
   152   6 C        2.918    -0.052    29.304     8.877
   153   1 H        0.926     0.030     2.582     2.513
   154   6 C        2.830     0.135    25.033     8.199
   155   8 O        1.660    -0.449    21.819     6.306
   156   1 H        0.806     0.344     0.603     1.220
   157   6 C        2.910    -0.070    29.747     8.943
   158   1 H        0.927     0.053     2.288     2.365
   159   6 C        2.907    -0.044    29.097     8.845
   160   1 H        0.926     0.063     2.165     2.301
   161   6 C        2.756     0.200    23.733     7.978
   162   8 O        0.856    -0.393    21.548     6.224
   163   7 N        2.638    -0.309    27.952     7.852
   164   1 H        0.860     0.210     1.059     1.612
   165   6 C        3.788     0.042    19.874     6.349
   166   1 H        0.924     0.072     2.065     2.247
   167   6 C        3.806    -0.070    21.841     6.653
   168   1 H        0.924     0.066     2.128     2.281
   169   1 H        0.924     0.080     1.976     2.198
   170   6 C        3.120     0.044    26.848     8.486
   171   7 N        1.897    -0.331    29.439     8.044
   172   6 C        3.056     0.084    26.068     8.373
   173   1 H        0.926     0.039     2.461     2.453
   174   7 N        2.790    -0.094    23.079     7.135
   175   1 H        0.860     0.227     0.976     1.548
   176   6 C        2.994    -0.035    28.857     8.812
   177   1 H        0.926     0.063     2.168     2.303
   178   6 C        2.762     0.208    23.584     7.953
   179   8 O        0.856    -0.353    20.759     6.109
   180   7 N        2.633    -0.333    28.581     7.940
   181   1 H        0.860     0.187     1.173     1.696
   182   6 C        3.787     0.026    20.157     6.395
   183   1 H        0.925     0.078     1.997     2.210
   184   6 C        3.854    -0.025    20.982     6.515
   185   1 H        0.925     0.051     2.308     2.376
   186   6 C        3.756    -0.116    22.770     6.804
   187   1 H        0.925     0.048     2.340     2.392
   188   1 H        0.925     0.038     2.472     2.459
   189   1 H        0.925     0.044     2.402     2.424
   190   6 C        3.806    -0.066    21.753     6.639
   191   1 H        0.924     0.034     2.537     2.491
   192   1 H        0.925     0.047     2.359     2.402
   193   6 C        3.749    -0.122    22.905     6.826
   194   1 H        0.925     0.058     2.220     2.330
   195   1 H        0.924     0.034     2.529     2.487
   196   1 H        0.925     0.034     2.525     2.485
   197   6 C        2.749     0.272    22.403     7.750
   198   8 O        0.860    -0.517    24.174     6.592
   199   7 N        2.697    -0.155    24.351     7.329
   200   1 H        0.860     0.222     1.000     1.567
   201   6 C        3.798     0.029    20.093     6.383
   202   1 H        0.924     0.080     1.979     2.200
   203   6 C        3.856    -0.025    20.975     6.514
   204   1 H        0.925     0.074     2.040     2.234
   205   6 C        3.762    -0.127    22.983     6.834
   206   1 H        0.924     0.042     2.418     2.432
   207   1 H        0.925     0.048     2.343     2.394
   208   1 H        0.925     0.058     2.217     2.329
   209   6 C        3.804    -0.059    21.627     6.621
   210   1 H        0.925     0.032     2.553     2.498
   211   1 H        0.925     0.046     2.369     2.407
   212   6 C        3.750    -0.112    22.701     6.795
   213   1 H        0.925     0.045     2.386     2.416
   214   1 H        0.925     0.036     2.508     2.477
   215   1 H        0.924     0.035     2.523     2.484
   216   6 C        2.765     0.206    23.618     7.959
   217   8 O        0.857    -0.349    20.694     6.099
   218   1 H        0.860     0.200     1.108     1.649
   219   1 H        0.923     0.050     2.315     2.379
   220   1 H        0.860     0.201     1.101     1.644
   221   1 H        0.923     0.075     2.033     2.230
   222   1 H        0.860     0.196     1.124     1.661
   223   1 H        0.923     0.078     1.997     2.210
   224   1 H        0.860     0.184     1.191     1.710
   225   1 H        0.923     0.066     2.128     2.281
   226   1 H        0.860     0.207     1.071     1.621
   227   1 H        0.923     0.080     1.983     2.202

 Mol. C6AA /au·bohr⁶  :     531310.541329
 Mol. C8AA /au·bohr⁸  :   12398059.561889
 Mol. α(0) /au        :       1111.111563


Wiberg/Mayer (AO) data.
largest (>0.10) Wiberg bond orders for each atom

 ---------------------------------------------------------------------------
     #   Z sym  total        # sym  WBO       # sym  WBO       # sym  WBO
 ---------------------------------------------------------------------------
     1   6 C    3.892 --    17 O    1.685     2 N    1.182    21 C    0.941
     2   7 N    3.484 --     1 C    1.182     3 C    1.181    33 H    0.882
                            17 O    0.138
     3   6 C    3.465 --     2 N    1.181    14 C    1.085     5 C    1.028
     4   6 C    3.918 --    15 C    1.012    35 H    0.969    34 H    0.967
                            12 O    0.934
     5   6 C    3.959 --     3 C    1.028     6 C    0.992    36 H    0.937
                            37 H    0.921
     6   6 C    3.973 --     7 C    1.426    11 C    1.395     5 C    0.992
                             9 C    0.107
     7   6 C    3.984 --     8 C    1.428     6 C    1.426    38 H    0.967
                            10 C    0.110
     8   6 C    3.987 --     9 C    1.451     7 C    1.428    39 H    0.969
                            11 C    0.112
     9   6 C    3.984 --     8 C    1.451    10 C    1.421    40 H    0.967
                             6 C    0.107
    10   6 C    3.986 --    11 C    1.457     9 C    1.421    41 H    0.964
                             7 C    0.110
    11   6 C    3.985 --    10 C    1.457     6 C    1.395    42 H    0.967
                             8 C    0.112
    12   8 O    2.236 --    14 C    1.098     4 C    0.934    13 O    0.149
    13   8 O    1.857 --    14 C    1.609    12 O    0.149
    14   6 C    3.863 --    13 O    1.609    12 O    1.098     3 C    1.085
    15   6 C    3.981 --     4 C    1.012    43 H    0.984    44 H    0.983
                            45 H    0.977
    16   6 C    3.965 --    18 C    1.002    22 N    0.982    46 H    0.969
                            47 H    0.961
    17   8 O    1.935 --     1 C    1.685     2 N    0.138
    18   6 C    3.972 --    16 C    1.002    19 S    0.994    48 H    0.970
                            49 H    0.967
    19  16 S    2.129 --    18 C    0.994    20 C    0.988
    20   6 C    3.968 --    21 C    0.990    19 S    0.988    50 H    0.965
                            51 H    0.963
    21   6 C    3.968 --    20 C    0.990    22 N    0.990     1 C    0.941
                            52 H    0.921
    22   7 N    3.196 --    21 C    0.990    16 C    0.982    23 S    0.896
    23  16 S    4.835 --    31 O    1.562    30 O    1.546    22 N    0.896
                            24 C    0.735
    24   6 C    3.944 --    29 C    1.406    25 C    1.404    23 S    0.735
                            27 C    0.102
    25   6 C    3.982 --    26 C    1.456    24 C    1.404    53 H    0.961
                            28 C    0.100
    26   6 C    3.985 --    25 C    1.456    27 C    1.391    54 H    0.964
                            29 C    0.107
    27   6 C    3.981 --    28 C    1.404    26 C    1.391    32 C    1.030
                            24 C    0.102
    28   6 C    3.985 --    29 C    1.445    27 C    1.404    55 H    0.963
                            25 C    0.100
    29   6 C    3.984 --    28 C    1.445    24 C    1.406    56 H    0.965
                            26 C    0.107
    30   8 O    1.844 --    23 S    1.546    31 O    0.105
    31   8 O    1.869 --    23 S    1.562    30 O    0.105
    32   6 C    3.989 --    27 C    1.030    59 H    0.978    57 H    0.970
                            58 H    0.957
    33   1 H    0.938 --     2 N    0.882
    34   1 H    0.995 --     4 C    0.967
    35   1 H    0.994 --     4 C    0.969
    36   1 H    0.979 --     5 C    0.937
    37   1 H    0.957 --     5 C    0.921
    38   1 H    0.998 --     7 C    0.967
    39   1 H    0.997 --     8 C    0.969
    40   1 H    0.996 --     9 C    0.967
    41   1 H    0.997 --    10 C    0.964
    42   1 H    0.999 --    11 C    0.967
    43   1 H    0.994 --    15 C    0.984
    44   1 H    0.998 --    15 C    0.983
    45   1 H    0.994 --    15 C    0.977
    46   1 H    0.998 --    16 C    0.969
    47   1 H    0.996 --    16 C    0.961
    48   1 H    0.992 --    18 C    0.970
    49   1 H    0.993 --    18 C    0.967
    50   1 H    0.990 --    20 C    0.965
    51   1 H    0.992 --    20 C    0.963
    52   1 H    0.987 --    21 C    0.921
    53   1 H    0.995 --    25 C    0.961
    54   1 H    0.994 --    26 C    0.964
    55   1 H    0.993 --    28 C    0.963
    56   1 H    0.996 --    29 C    0.965
    57   1 H    0.993 --    32 C    0.970
    58   1 H    0.996 --    32 C    0.957
    59   1 H    0.995 --    32 C    0.978
    60   7 N    2.994 --    62 C    1.031    61 H    0.949   218 H    0.947
    61   1 H    0.968 --    60 N    0.949
    62   6 C    3.969 --    60 N    1.031    64 C    0.948    63 H    0.947
                            78 C    0.935
    63   1 H    0.993 --    62 C    0.947
    64   6 C    3.973 --    67 C    1.013    65 H    0.970    66 H    0.957
                            62 C    0.948
    65   1 H    0.994 --    64 C    0.970
    66   1 H    0.994 --    64 C    0.957
    67   6 C    3.986 --    68 C    1.414    76 C    1.403    64 C    1.013
                            72 C    0.107
    68   6 C    3.986 --    70 C    1.440    67 C    1.414    69 H    0.968
                            74 C    0.109
    69   1 H    0.998 --    68 C    0.968
    70   6 C    3.989 --    68 C    1.440    72 C    1.437    71 H    0.972
                            76 C    0.113
    71   1 H    0.998 --    70 C    0.972
    72   6 C    3.984 --    70 C    1.437    74 C    1.435    73 H    0.972
                            67 C    0.107
    73   1 H    0.998 --    72 C    0.972
    74   6 C    3.990 --    76 C    1.447    72 C    1.435    75 H    0.972
                            68 C    0.109
    75   1 H    0.999 --    74 C    0.972
    76   6 C    3.988 --    74 C    1.447    67 C    1.403    77 H    0.966
                            70 C    0.113
    77   1 H    0.999 --    76 C    0.966
    78   6 C    3.929 --    79 O    1.626    80 N    1.295    62 C    0.935
    79   8 O    1.928 --    78 C    1.626    80 N    0.186
    80   7 N    3.459 --    78 C    1.295    82 C    0.992    81 H    0.907
                            79 O    0.186
    81   1 H    0.952 --    80 N    0.907
    82   6 C    3.973 --    90 C    0.994    80 N    0.992    84 C    0.947
                            83 H    0.935
    83   1 H    0.991 --    82 C    0.935
    84   6 C    3.977 --    85 H    0.957    86 H    0.949    82 C    0.947
                            87 C    0.940
    85   1 H    0.998 --    84 C    0.957
    86   1 H    0.993 --    84 C    0.949
    87   6 C    3.934 --    88 O    1.494    89 O    1.475    84 C    0.940
    88   8 O    1.781 --    87 C    1.494    89 O    0.211
    89   8 O    1.758 --    87 C    1.475    88 O    0.211
    90   6 C    3.896 --    91 O    1.878    82 C    0.994   219 H    0.940
    91   8 O    2.053 --    90 C    1.878
    92   7 N    3.011 --    94 C    1.030    93 H    0.947   220 H    0.944
    93   1 H    0.966 --    92 N    0.947
    94   6 C    3.969 --    92 N    1.030    96 C    0.972    95 H    0.942
                           105 C    0.929
    95   1 H    0.986 --    94 C    0.942
    96   6 C    3.988 --    99 C    1.002    98 H    0.975    94 C    0.972
                            97 H    0.971
    97   1 H    0.998 --    96 C    0.971
    98   1 H    0.998 --    96 C    0.975
    99   6 C    3.961 --    96 C    1.002   101 H    0.972   100 H    0.959
                           102 C    0.925
   100   1 H    0.997 --    99 C    0.959
   101   1 H    0.997 --    99 C    0.972
   102   6 C    3.922 --   103 O    1.489   104 O    1.485    99 C    0.925
   103   8 O    1.760 --   102 C    1.489   104 O    0.211
   104   8 O    1.760 --   102 C    1.485   103 O    0.211
   105   6 C    3.932 --   106 O    1.605   107 N    1.323    94 C    0.929
   106   8 O    1.906 --   105 C    1.605   107 N    0.194
   107   7 N    3.470 --   105 C    1.323   109 C    0.981   108 H    0.891
                           106 O    0.194
   108   1 H    0.950 --   107 N    0.891
   109   6 C    3.965 --   107 N    0.981   111 C    0.961   121 C    0.945
                           110 H    0.943
   110   1 H    0.995 --   109 C    0.943
   111   6 C    3.989 --   117 C    1.009   113 C    1.005   109 C    0.961
                           112 H    0.959
   112   1 H    0.995 --   111 C    0.959
   113   6 C    3.994 --   111 C    1.005   116 H    0.987   114 H    0.986
                           115 H    0.983
   114   1 H    0.999 --   113 C    0.986
   115   1 H    0.996 --   113 C    0.983
   116   1 H    0.998 --   113 C    0.987
   117   6 C    3.988 --   111 C    1.009   119 H    0.983   120 H    0.983
                           118 H    0.975
   118   1 H    0.998 --   117 C    0.975
   119   1 H    0.996 --   117 C    0.983
   120   1 H    0.998 --   117 C    0.983
   121   6 C    3.950 --   122 O    1.622   123 N    1.301   109 C    0.945
   122   8 O    1.942 --   121 C    1.622   123 N    0.192
   123   7 N    3.471 --   121 C    1.301   125 C    0.977   124 H    0.914
                           122 O    0.192
   124   1 H    0.954 --   123 N    0.914
   125   6 C    3.961 --   140 C    0.981   123 N    0.977   127 C    0.947
                           126 H    0.939
   126   1 H    0.992 --   125 C    0.939
   127   6 C    3.979 --   129 C    1.002   133 C    0.997   128 H    0.959
                           125 C    0.947
   128   1 H    0.995 --   127 C    0.959
   129   6 C    3.981 --   127 C    1.002   130 H    0.980   131 H    0.975
                           132 H    0.975
   130   1 H    0.997 --   129 C    0.980
   131   1 H    0.998 --   129 C    0.975
   132   1 H    0.995 --   129 C    0.975
   133   6 C    3.992 --   136 C    1.016   127 C    0.997   134 H    0.974
                           135 H    0.970
   134   1 H    0.998 --   133 C    0.974
   135   1 H    0.998 --   133 C    0.970
   136   6 C    3.991 --   133 C    1.016   138 H    0.986   139 H    0.986
                           137 H    0.984
   137   1 H    0.998 --   136 C    0.984
   138   1 H    0.997 --   136 C    0.986
   139   1 H    0.998 --   136 C    0.986
   140   6 C    3.886 --   141 O    1.893   125 C    0.981   221 H    0.936
   141   8 O    2.052 --   140 C    1.893
   142   7 N    2.985 --   144 C    1.033   143 H    0.947   222 H    0.946
   143   1 H    0.963 --   142 N    0.947
   144   6 C    3.971 --   142 N    1.033   161 C    0.979   146 C    0.950
                           145 H    0.918
   145   1 H    0.982 --   144 C    0.918
   146   6 C    3.979 --   149 C    1.009   148 H    0.965   147 H    0.959
                           144 C    0.950
   147   1 H    0.994 --   146 C    0.959
   148   1 H    0.995 --   146 C    0.965
   149   6 C    3.980 --   159 C    1.414   150 C    1.395   146 C    1.009
   150   6 C    3.984 --   152 C    1.463   149 C    1.395   151 H    0.967
                           157 C    0.106
   151   1 H    0.997 --   150 C    0.967
   152   6 C    3.987 --   150 C    1.463   154 C    1.363   153 H    0.968
                           159 C    0.107
   153   1 H    0.999 --   152 C    0.968
   154   6 C    3.927 --   157 C    1.378   152 C    1.363   155 O    1.052
   155   8 O    2.057 --   154 C    1.052   156 H    0.860
   156   1 H    0.882 --   155 O    0.860
   157   6 C    3.983 --   159 C    1.437   154 C    1.378   158 H    0.968
                           150 C    0.106
   158   1 H    0.997 --   157 C    0.968
   159   6 C    3.984 --   157 C    1.437   149 C    1.414   160 H    0.962
                           152 C    0.107
   160   1 H    0.996 --   159 C    0.962
   161   6 C    3.860 --   162 O    1.874   144 C    0.979   223 H    0.934
   162   8 O    2.023 --   161 C    1.874
   163   7 N    2.977 --   165 C    1.027   224 H    0.951   164 H    0.910
   164   1 H    0.955 --   163 N    0.910
   165   6 C    3.970 --   163 N    1.027   178 C    0.987   166 H    0.947
                           167 C    0.921
   166   1 H    0.984 --   165 C    0.947
   167   6 C    3.964 --   170 C    1.014   168 H    0.966   169 H    0.960
                           165 C    0.921
   168   1 H    0.993 --   167 C    0.966
   169   1 H    0.993 --   167 C    0.960
   170   6 C    3.964 --   176 C    1.553   171 N    1.271   167 C    1.014
   171   7 N    2.987 --   172 C    1.522   170 C    1.271   174 N    0.103
   172   6 C    3.960 --   171 N    1.522   174 N    1.304   173 H    0.966
                           176 C    0.115
   173   1 H    0.998 --   172 C    0.966
   174   7 N    3.597 --   172 C    1.304   176 C    1.200   175 H    0.920
                           171 N    0.103
   175   1 H    0.948 --   174 N    0.920
   176   6 C    3.919 --   170 C    1.553   174 N    1.200   177 H    0.965
                           172 C    0.115
   177   1 H    0.996 --   176 C    0.965
   178   6 C    3.884 --   179 O    1.896   165 C    0.987   225 H    0.938
   179   8 O    2.063 --   178 C    1.896
   180   7 N    2.970 --   182 C    1.022   226 H    0.942   181 H    0.942
   181   1 H    0.965 --   180 N    0.942
   182   6 C    3.963 --   180 N    1.022   183 H    0.949   197 C    0.946
                           184 C    0.942
   183   1 H    0.986 --   182 C    0.949
   184   6 C    3.964 --   186 C    1.004   190 C    0.995   185 H    0.961
                           182 C    0.942
   185   1 H    0.996 --   184 C    0.961
   186   6 C    3.990 --   184 C    1.004   188 H    0.982   189 H    0.980
                           187 H    0.977
   187   1 H    0.996 --   186 C    0.977
   188   1 H    0.998 --   186 C    0.982
   189   1 H    0.998 --   186 C    0.980
   190   6 C    3.990 --   193 C    1.013   184 C    0.995   192 H    0.975
                           191 H    0.974
   191   1 H    0.999 --   190 C    0.974
   192   1 H    0.995 --   190 C    0.975
   193   6 C    3.988 --   190 C    1.013   195 H    0.986   194 H    0.984
                           196 H    0.980
   194   1 H    0.996 --   193 C    0.984
   195   1 H    0.999 --   193 C    0.986
   196   1 H    0.998 --   193 C    0.980
   197   6 C    3.940 --   198 O    1.610   199 N    1.309   182 C    0.946
   198   8 O    1.915 --   197 C    1.610   199 N    0.193
   199   7 N    3.490 --   197 C    1.309   201 C    0.965   200 H    0.908
                           198 O    0.193
   200   1 H    0.951 --   199 N    0.908
   201   6 C    3.959 --   216 C    0.971   199 N    0.965   202 H    0.958
                           203 C    0.957
   202   1 H    0.993 --   201 C    0.958
   203   6 C    3.982 --   205 C    1.002   209 C    0.996   201 C    0.957
                           204 H    0.954
   204   1 H    0.994 --   203 C    0.954
   205   6 C    3.991 --   203 C    1.002   207 H    0.985   206 H    0.984
                           208 H    0.977
   206   1 H    0.998 --   205 C    0.984
   207   1 H    0.997 --   205 C    0.985
   208   1 H    0.996 --   205 C    0.977
   209   6 C    3.995 --   212 C    1.017   203 C    0.996   211 H    0.976
                           210 H    0.971
   210   1 H    0.999 --   209 C    0.971
   211   1 H    0.997 --   209 C    0.976
Note: The following floating-point exceptions are signalling: IEEE_UNDERFLOW_FLAG IEEE_DENORMAL
normal termination of xtb
   212   6 C    3.993 --   209 C    1.017   215 H    0.985   214 H    0.982
                           213 H    0.981
   213   1 H    0.998 --   212 C    0.981
   214   1 H    0.998 --   212 C    0.982
   215   1 H    0.999 --   212 C    0.985
   216   6 C    3.882 --   217 O    1.897   201 C    0.971   227 H    0.937
   217   8 O    2.079 --   216 C    1.897
   218   1 H    0.960 --    60 N    0.947
   219   1 H    0.997 --    90 C    0.940
   220   1 H    0.959 --    92 N    0.944
   221   1 H    0.994 --   140 C    0.936
   222   1 H    0.961 --   142 N    0.946
   223   1 H    0.989 --   161 C    0.934
   224   1 H    0.965 --   163 N    0.951
   225   1 H    0.993 --   178 C    0.938
   226   1 H    0.957 --   180 N    0.942
   227   1 H    0.993 --   216 C    0.937
 ---------------------------------------------------------------------------

Topologies differ in total number of bonds
Writing topology from bond orders to xtbtopo.mol

molecular dipole:
                 x           y           z       tot (Debye)
 q only:      -30.244     -14.199    -115.911
   full:      -30.268     -14.765    -115.260     305.211
molecular quadrupole (traceless):
                xx          xy          yy          xz          yz          zz
 q only:     5890.502    -728.976    6712.276   -5748.660   -2591.846  -12602.778
  q+dip:     5819.353    -773.340    6657.328   -5699.054   -2666.956  -12476.682
   full:     5823.444    -772.549    6659.424   -5701.640   -2662.166  -12482.868


           -------------------------------------------------
          | TOTAL ENERGY             -349.209339775825 Eh   |
          | GRADIENT NORM               0.275990979072 Eh/α |
          | HOMO-LUMO GAP               0.298375766275 eV   |
           -------------------------------------------------

------------------------------------------------------------------------
 * finished run on 2026/01/05 at 09:07:13.387     
------------------------------------------------------------------------
 total:
 * wall-time:     0 d,  0 h,  0 min,  2.529 sec
 *  cpu-time:     0 d,  0 h,  0 min, 36.488 sec
 * ratio c/w:    14.429 speedup
 SCF:
 * wall-time:     0 d,  0 h,  0 min,  2.429 sec
 *  cpu-time:     0 d,  0 h,  0 min, 35.001 sec
 * ratio c/w:    14.412 speedup

