      -----------------------------------------------------------      
     |                   =====================                   |     
     |                           x T B                           |     
     |                   =====================                   |     
     |                         S. Grimme                         |     
     |          Mulliken Center for Theoretical Chemistry        |     
     |                    University of Bonn                     |     
      -----------------------------------------------------------      

   * xtb version 6.7.1 (edcfbbe) compiled by 'conda@c0858423619e' on 2025-09-04

   xtb is free software: you can redistribute it and/or modify it under
   the terms of the GNU Lesser General Public License as published by
   the Free Software Foundation, either version 3 of the License, or
   (at your option) any later version.
   
   xtb is distributed in the hope that it will be useful,
   but WITHOUT ANY WARRANTY; without even the implied warranty of
   MERCHANTABILITY or FITNESS FOR A PARTICULAR PURPOSE.  See the
   GNU Lesser General Public License for more details.
   
   Cite this work as:
   * C. Bannwarth, E. Caldeweyher, S. Ehlert, A. Hansen, P. Pracht,
     J. Seibert, S. Spicher, S. Grimme, WIREs Comput. Mol. Sci., 2020, 11,
     e01493. DOI: 10.1002/wcms.1493
   
   for GFN2-xTB:
   * C. Bannwarth, S. Ehlert and S. Grimme., J. Chem. Theory Comput., 2019,
     15, 1652-1671. DOI: 10.1021/acs.jctc.8b01176
   for GFN1-xTB:
   * S. Grimme, C. Bannwarth, P. Shushkov, J. Chem. Theory Comput., 2017,
     13, 1989-2009. DOI: 10.1021/acs.jctc.7b00118
   for GFN0-xTB:
   * P. Pracht, E. Caldeweyher, S. Ehlert, S. Grimme, ChemRxiv, 2019, preprint.
     DOI: 10.26434/chemrxiv.8326202.v1
   for GFN-FF:
   * S. Spicher and S. Grimme, Angew. Chem. Int. Ed., 2020, 59, 15665-15673.
     DOI: 10.1002/anie.202004239
   
   for ALPB and GBSA implicit solvation:
   * S. Ehlert, M. Stahn, S. Spicher, S. Grimme, J. Chem. Theory Comput.,
     2021, 17, 4250-4261. DOI: 10.1021/acs.jctc.1c00471
   
   for ddCOSMO and CPCM-X implicit solvation:
   * M. Stahn, S. Ehlert, S. Grimme, J. Phys. Chem. A,
     2023, XX, XXXX-XXXX. DOI: 10.1021/acs.jpca.3c04382
   
   for DFT-D4:
   * E. Caldeweyher, C. Bannwarth and S. Grimme, J. Chem. Phys., 2017,
     147, 034112. DOI: 10.1063/1.4993215
   * E. Caldeweyher, S. Ehlert, A. Hansen, H. Neugebauer, S. Spicher,
     C. Bannwarth and S. Grimme, J. Chem. Phys., 2019, 150, 154122.
     DOI: 10.1063/1.5090222
   * E. Caldeweyher, J.-M. Mewes, S. Ehlert and S. Grimme, Phys. Chem. Chem. Phys.
     2020, 22, 8499-8512. DOI: 10.1039/D0CP00502A
   
   for sTDA-xTB:
   * S. Grimme and C. Bannwarth, J. Chem. Phys., 2016, 145, 054103.
     DOI: 10.1063/1.4959605
   
   in the mass-spec context:
   * V. Asgeirsson, C. Bauer and S. Grimme, Chem. Sci., 2017, 8, 4879.
     DOI: 10.1039/c7sc00601b
   * J. Koopman and S. Grimme, ACS Omega 2019, 4, 12, 15120-15133.
     DOI: 10.1021/acsomega.9b02011
   
   for metadynamics refer to:
   * S. Grimme, J. Chem. Theory Comput., 2019, 155, 2847-2862
     DOI: 10.1021/acs.jctc.9b00143
   
   for SPH calculations refer to:
   * S. Spicher and S. Grimme, J. Chem. Theory Comput., 2021, 17, 1701-1714
     DOI: 10.1021/acs.jctc.0c01306
   
   for ONIOM refer to:
   * C. Plett, A. Katbashev, S. Ehlert, S. Grimme, M. Bursch,
     Phys. Chem. Chem. Phys., 2023, 25, 17860-17868. DOI: 10.1039/D3CP02178E
   
   for DIPRO refer to:
   * J. Kohn, N. Gildemeister, S. Grimme, D. Fazzi, A. Hansen,
     J. Chem. Phys., 2023, just accepted.
   
   for PTB refer to:
   * S. Grimme, M. Mueller, A. Hansen, J. Chem. Phys., 2023, 158, 124111.
     DOI: 10.1063/5.0137838
   
   with help from (in alphabetical order)
   P. Atkinson, C. Bannwarth, F. Bohle, G. Brandenburg, E. Caldeweyher
   M. Checinski, S. Dohm, S. Ehlert, S. Ehrlich, I. Gerasimov, C. Hölzer
   A. Katbashev, J. Kohn, J. Koopman, C. Lavigne, S. Lehtola, F. März, M. Müller,
   F. Musil, H. Neugebauer, J. Pisarek, C. Plett, P. Pracht, F. Pultar,
   J. Seibert, P. Shushkov, S. Spicher, M. Stahn, M. Steiner, T. Strunk,
   J. Stückrath, T. Rose, and J. Unsleber
   
 * started run on 2026/01/05 at 09:06:52.456     
   ID    Z sym.   atoms
    1    6 C      1, 3-11, 14-16, 18, 20, 21, 24-29, 32, 62, 64, 67, 68, 70,
                  72, 74, 76, 78, 82, 84, 87, 90, 94, 96, 99, 100, 102, 104,
                  106, 108, 110, 114, 116, 119, 122, 125, 129, 131, 133, 137,
                  141, 145, 147, 149, 153, 156, 160, 164, 166, 169, 170, 172,
                  174, 177, 179, 181, 185, 187, 190, 192, 196, 198, 202, 204,
                  206, 210, 213, 217, 221, 223, 225, 229, 232, 236
    2    7 N      2, 22, 60, 80, 92, 112, 127, 143, 162, 183, 191, 194, 200,
                  219
    3    8 O      12, 13, 17, 30, 31, 79, 88, 89, 91, 111, 123, 124, 126,
                  142, 161, 175, 182, 199, 218, 237
    4   16 S      19, 23
    5    1 H      33-59, 61, 63, 65, 66, 69, 71, 73, 75, 77, 81, 83, 85, 86,
                  93, 95, 97, 98, 101, 103, 105, 107, 109, 113, 115, 117,
                  118, 120, 121, 128, 130, 132, 134-136, 138-140, 144, 146,
                  148, 150-152, 154, 155, 157-159, 163, 165, 167, 168, 171,
                  173, 176, 178, 180, 184, 186, 188, 189, 193, 195, 197, 201,
                  203, 205, 207-209, 211, 212, 214-216, 220, 222, 224,
                  226-228, 230, 231, 233-235, 238-249

           -------------------------------------------------
          |                Calculation Setup                |
           -------------------------------------------------

          program call               : xtb /home/antonio_mesquita/Documentos/gmx_ISA_project/testes_arquivos_primeiros/gmx_ISA_testes/testes_qm_xtb/QM_analysis/QM_FRAMES_CAPPED/frame_2400ps/complex_capped_2400ps.xyz --gfn 2 --alpb water --chrg -1 --etemp 1500 --cycles 1000
          coordinate file            : /home/antonio_mesquita/Documentos/gmx_ISA_project/testes_arquivos_primeiros/gmx_ISA_testes/testes_qm_xtb/QM_analysis/QM_FRAMES_CAPPED/frame_2400ps/complex_capped_2400ps.xyz
          omp threads                :                    16


molecular fragmentation (1/2 indicates fragments):
111111111111111111111111111111111111111111111111111111111112222222222222
222222222222222222222222222222222222222222222222222222222222222222222222
222222222222222222222222222222222222222222222222222222222222222222222222
222222222222222222222222222222222
# atoms in fragment 1/2:    59   190
 fragment masses (1/2) :      475.60     1287.55
CMA distance (Bohr)    :   6.747
constraining FC (au)   :  0.0500

           -------------------------------------------------
          |                 G F N 2 - x T B                 |
           -------------------------------------------------

        Reference                      10.1021/acs.jctc.8b01176
      * Hamiltonian:
        H0-scaling (s, p, d)           1.850000    2.230000    2.230000
        zeta-weighting                 0.500000
      * Dispersion:
        s8                             2.700000
        a1                             0.520000
        a2                             5.000000
        s9                             5.000000
      * Repulsion:
        kExp                           1.500000    1.000000
        rExp                           1.000000
      * Coulomb:
        alpha                          2.000000
        third order                    shell-resolved
        anisotropic                    true
        a3                             3.000000
        a5                             4.000000
        cn-shift                       1.200000
        cn-exp                         4.000000
        max-rad                        5.000000

      * Solvation model:               ALPB
        Solvent                        water
        Parameter file                 internal GFN2-xTB/ALPB
        Dielectric constant                8.0200E+01
        Reference state                gsolv [1 M gas/solution]
        Free energy shift                  1.0808E-03 Eh       6.7819E-01 kcal/mol
        Temperature                        2.9815E+02 K
        Density                            1.0000E+00 kg/L
        Solvent mass                       1.8000E+01 g/mol
        Interaction kernel             P16
        Born radius scaling (c1)           1.4744E+00
        Born radii integrator          GBOBC
        Born offset                        0.0000E+00 a0       0.0000E+00 AA
        H-bond correction              true
        Ion screening                  false
        Surface tension                    1.0000E-05 Eh       1.5569E+01 dyn/cm
        Grid points                               230 per atom

          ...................................................
          :                      SETUP                      :
          :.................................................:
          :  # basis functions                 633          :
          :  # atomic orbitals                 631          :
          :  # shells                          375          :
          :  # electrons                       680          :
          :  max. iterations                   250          :
          :  Hamiltonian                  GFN2-xTB          :
          :  restarted?                      false          :
          :  GBSA solvation                   true          :
          :  PC potential                    false          :
          :  electronic temp.         1500.0000000     K    :
          :  accuracy                    1.0000000          :
          :  -> integral cutoff          0.2500000E+02      :
          :  -> integral neglect         0.1000000E-07      :
          :  -> SCF convergence          0.1000000E-05 Eh   :
          :  -> wf. convergence          0.1000000E-03 e    :
          :  Broyden damping             0.4000000          :
          :  net charge                         -1          :
          :  unpaired electrons                  0          :
          ...................................................

 iter      E             dE          RMSdq      gap      omega  full diag
   1   -384.7684131 -0.384768E+03  0.447E+00    0.04       0.0  T
   2   -385.4222569 -0.653844E+00  0.257E+00    1.43       1.0  T
   3   -385.3182899  0.103967E+00  0.175E+00    0.13       1.0  T
   4   -385.5993880 -0.281098E+00  0.905E-01    0.38       1.0  T
   5   -385.6015762 -0.218821E-02  0.713E-01    0.08       1.0  T
   6   -385.7138051 -0.112229E+00  0.319E-01    0.32       1.0  T
   7   -385.7130976  0.707484E-03  0.280E-01    0.14       1.0  T
   8   -385.7298418 -0.167441E-01  0.136E-01    0.29       1.0  T
   9   -385.7323711 -0.252933E-02  0.857E-02    0.27       1.0  T
  10   -385.7323350  0.361212E-04  0.736E-02    0.28       1.0  T
  11   -385.7334184 -0.108338E-02  0.359E-02    0.30       1.0  T
  12   -385.7335813 -0.162908E-03  0.212E-02    0.29       1.0  T
  13   -385.7336275 -0.462263E-04  0.122E-02    0.31       1.0  T
  14   -385.7336297 -0.217663E-05  0.110E-02    0.29       1.0  T
  15   -385.7336572 -0.274763E-04  0.378E-03    0.30       1.7  T
  16   -385.7336520  0.519777E-05  0.531E-03    0.30       1.2  T
  17   -385.7336598 -0.783740E-05  0.140E-03    0.30       4.5  T
  18   -385.7336601 -0.339295E-06  0.688E-04    0.30       9.2  T
  19   -385.7336602 -0.865841E-07  0.281E-04    0.30      22.6  T

   *** convergence criteria satisfied after 19 iterations ***

         #    Occupation            Energy/Eh            Energy/eV
      -------------------------------------------------------------
         1        2.0000           -0.7900244             -21.4977
       ...           ...                  ...                  ...
       334        1.9832           -0.3698032             -10.0629
       335        1.8761           -0.3600556              -9.7976
       336        1.8679           -0.3597278              -9.7887
       337        1.8610           -0.3594709              -9.7817
       338        1.8454           -0.3589239              -9.7668
       339        1.8352           -0.3585962              -9.7579
       340        1.8090           -0.3578250              -9.7369 (HOMO)
       341        0.9740           -0.3468988              -9.4396 (LUMO)
       342        0.0000           -0.2962243              -8.0607
       343        0.0000           -0.2958435              -8.0503
       344        0.0000           -0.2939780              -7.9995
       345        0.0000           -0.2858439              -7.7782
       ...           ...                  ...                  ...
       631                          1.0272659              27.9533
      -------------------------------------------------------------
                  HL-Gap            0.0109261 Eh            0.2973 eV
             Fermi-level           -0.3471463 Eh           -9.4463 eV

 SCC (total)                   0 d,  0 h,  0 min,  2.262 sec
 SCC setup                      ...        0 min,  0.009 sec (  0.386%)
 Dispersion                     ...        0 min,  0.037 sec (  1.651%)
 classical contributions        ...        0 min,  0.005 sec (  0.202%)
 integral evaluation            ...        0 min,  0.057 sec (  2.541%)
 iterations                     ...        0 min,  1.907 sec ( 84.295%)
 molecular gradient             ...        0 min,  0.238 sec ( 10.518%)
 printout                       ...        0 min,  0.009 sec (  0.405%)

         :::::::::::::::::::::::::::::::::::::::::::::::::::::
         ::                     SUMMARY                     ::
         :::::::::::::::::::::::::::::::::::::::::::::::::::::
         :: total energy            -380.996879801742 Eh    ::
         :: total w/o Gsasa/hb      -380.974838058580 Eh    ::
         :: gradient norm              0.294271762054 Eh/a0 ::
         :: HOMO-LUMO gap              0.297314986183 eV    ::
         ::.................................................::
         :: SCC energy              -385.715700195566 Eh    ::
         :: -> isotropic ES            1.073408972092 Eh    ::
         :: -> anisotropic ES          0.006886425993 Eh    ::
         :: -> anisotropic XC          0.161433720398 Eh    ::
         :: -> dispersion             -0.302310821028 Eh    ::
         :: -> Gsolv                  -0.310205885069 Eh    ::
         ::    -> Gelec               -0.288164141907 Eh    ::
         ::    -> Gsasa                0.012942846056 Eh    ::
         ::    -> Ghb                 -0.036065348916 Eh    ::
         ::    -> Gshift               0.001080759698 Eh    ::
         :: repulsion energy           4.718820393824 Eh    ::
         :: add. restraining           0.000000000000 Eh    ::
         :: total charge              -0.999999998212 e     ::
         :::::::::::::::::::::::::::::::::::::::::::::::::::::

           -------------------------------------------------
          |                Property Printout                |
           -------------------------------------------------

    * Orbital Energies and Occupations

         #    Occupation            Energy/Eh            Energy/eV
      -------------------------------------------------------------
         1        2.0000           -0.7900244             -21.4977
       ...           ...                  ...                  ...
       328        1.9990           -0.3830628             -10.4237
       329        1.9967           -0.3775571             -10.2739
       330        1.9961           -0.3767805             -10.2527
       331        1.9887           -0.3717253             -10.1152
       332        1.9846           -0.3702323             -10.0745
       333        1.9844           -0.3701505             -10.0723
       334        1.9832           -0.3698032             -10.0629
       335        1.8761           -0.3600556              -9.7976
       336        1.8679           -0.3597278              -9.7887
       337        1.8610           -0.3594709              -9.7817
       338        1.8454           -0.3589239              -9.7668
       339        1.8352           -0.3585962              -9.7579
       340        1.8090           -0.3578250              -9.7369 (HOMO)
       341        0.9740           -0.3468988              -9.4396 (LUMO)
       342        0.0000           -0.2962243              -8.0607
       343        0.0000           -0.2958435              -8.0503
       344        0.0000           -0.2939780              -7.9995
       345        0.0000           -0.2858439              -7.7782
       346        0.0000           -0.2854608              -7.7678
       347        0.0000           -0.2824482              -7.6858
       348                         -0.2639752              -7.1831
       349                         -0.2524805              -6.8703
       350                         -0.2473677              -6.7312
       351                         -0.2312191              -6.2918
       ...                                ...                  ...
       631                          1.0272659              27.9533
      -------------------------------------------------------------
                  HL-Gap            0.0109261 Eh            0.2973 eV
             Fermi-level           -0.3471463 Eh           -9.4463 eV

     #   Z          covCN         q      C6AA      α(0)
     1   6 C        2.743     0.261    22.604     7.785
     2   7 N        2.686    -0.119    23.594     7.214
     3   6 C        2.870     0.037    27.160     8.543
     4   6 C        3.685     0.072    19.562     6.332
     5   6 C        3.806    -0.071    21.862     6.656
     6   6 C        2.963     0.018    27.613     8.619
     7   6 C        2.910    -0.035    28.872     8.811
     8   6 C        2.913    -0.032    28.794     8.799
     9   6 C        2.911    -0.036    28.908     8.816
    10   6 C        2.909    -0.036    28.899     8.815
    11   6 C        2.917    -0.043    29.075     8.842
    12   8 O        1.702    -0.282    18.683     5.836
    13   8 O        0.858    -0.494    23.646     6.520
    14   6 C        2.707     0.337    21.268     7.549
    15   6 C        3.745    -0.113    22.736     6.802
    16   6 C        3.864     0.020    20.202     6.392
    17   8 O        0.858    -0.446    22.631     6.378
    18   6 C        3.788    -0.012    20.796     6.495
    19  16 S        2.009    -0.178   148.584    20.516
    20   6 C        3.791    -0.030    21.110     6.543
    21   6 C        3.850     0.028    20.063     6.371
    22   7 N        2.728    -0.303    27.786     7.829
    23  16 S        3.823     1.152   102.405    17.032
    24   6 C        2.970    -0.088    30.214     9.016
    25   6 C        2.937    -0.022    28.545     8.762
    26   6 C        2.921    -0.028    28.707     8.786
    27   6 C        2.954     0.032    27.291     8.568
    28   6 C        2.929    -0.043    29.076     8.843
    29   6 C        2.947    -0.036    28.889     8.816
    30   8 O        0.859    -0.661    27.670     7.053
    31   8 O        0.859    -0.622    26.652     6.922
    32   6 C        3.752    -0.139    23.245     6.875
    33   1 H        0.875     0.237     0.932     1.512
    34   1 H        0.924     0.063     2.170     2.303
    35   1 H        0.924     0.077     2.007     2.215
    36   1 H        0.923     0.078     2.001     2.212
    37   1 H        0.924     0.084     1.942     2.179
    38   1 H        0.925     0.050     2.324     2.384
    39   1 H        0.925     0.057     2.236     2.338
    40   1 H        0.926     0.052     2.293     2.368
    41   1 H        0.925     0.031     2.568     2.506
    42   1 H        0.924     0.030     2.580     2.512
    43   1 H        0.923     0.049     2.328     2.386
    44   1 H        0.923     0.060     2.199     2.319
    45   1 H        0.925     0.053     2.282     2.362
    46   1 H        0.923     0.045     2.378     2.411
    47   1 H        0.923     0.059     2.214     2.327
    48   1 H        0.923     0.056     2.242     2.342
    49   1 H        0.924     0.079     1.990     2.206
    50   1 H        0.923     0.071     2.079     2.255
    51   1 H        0.924     0.099     1.790     2.093
    52   1 H        0.924     0.094     1.844     2.124
    53   1 H        0.925     0.060     2.203     2.321
    54   1 H        0.925     0.079     1.984     2.203
    55   1 H        0.925     0.076     2.022     2.224
    56   1 H        0.925     0.066     2.132     2.283
    57   1 H        0.924     0.078     1.997     2.210
    58   1 H        0.924     0.078     1.996     2.209
    59   1 H        0.923     0.096     1.823     2.112
    60   7 N        2.639    -0.339    28.727     7.960
    61   1 H        0.860     0.169     1.279     1.772
    62   6 C        3.790     0.030    20.079     6.382
    63   1 H        0.925     0.077     2.014     2.219
    64   6 C        3.819    -0.069    21.806     6.646
    65   1 H        0.925     0.072     2.067     2.248
    66   1 H        0.924     0.053     2.287     2.365
    67   6 C        2.962     0.012    27.746     8.640
    68   6 C        2.911    -0.041    29.020     8.834
    69   1 H        0.926     0.056     2.242     2.342
    70   6 C        2.914    -0.040    28.982     8.828
    71   1 H        0.926     0.047     2.362     2.403
    72   6 C        2.908    -0.041    29.019     8.833
    73   1 H        0.927     0.045     2.378     2.411
    74   6 C        2.911    -0.034    28.847     8.807
    75   1 H        0.926     0.024     2.680     2.560
    76   6 C        2.916    -0.039    28.957     8.824
    77   1 H        0.926     0.012     2.865     2.647
    78   6 C        2.750     0.276    22.324     7.737
    79   8 O        0.858    -0.506    23.921     6.557
    80   7 N        2.691    -0.160    24.452     7.344
    81   1 H        0.860     0.223     0.994     1.562
    82   6 C        3.793     0.044    19.846     6.344
    83   1 H        0.925     0.082     1.958     2.188
    84   6 C        3.820    -0.075    21.919     6.663
    85   1 H        0.925     0.039     2.464     2.455
    86   1 H        0.925     0.053     2.277     2.360
    87   6 C        2.689     0.363    20.843     7.472
    88   8 O        0.856    -0.637    27.044     6.972
    89   8 O        0.857    -0.645    27.246     6.998
    90   6 C        2.768     0.211    23.522     7.943
    91   8 O        0.856    -0.358    20.869     6.125
    92   7 N        2.633    -0.336    28.640     7.948
    93   1 H        0.860     0.190     1.158     1.686
    94   6 C        3.785     0.041    19.903     6.354
    95   1 H        0.924     0.081     1.966     2.193
    96   6 C        3.815    -0.078    21.972     6.672
    97   1 H        0.925     0.060     2.199     2.319
    98   1 H        0.925     0.074     2.044     2.236
    99   6 C        2.961     0.007    27.870     8.659
   100   6 C        2.918    -0.042    29.052     8.839
   101   1 H        0.926     0.038     2.480     2.463
   102   6 C        2.909    -0.037    28.913     8.817
   103   1 H        0.926     0.042     2.420     2.433
   104   6 C        2.913    -0.038    28.935     8.821
   105   1 H        0.926     0.031     2.571     2.508
   106   6 C        2.905    -0.038    28.947     8.822
   107   1 H        0.926     0.037     2.490     2.467
   108   6 C        2.915    -0.046    29.148     8.853
   109   1 H        0.926     0.043     2.404     2.424
   110   6 C        2.760     0.216    23.436     7.928
   111   8 O        0.856    -0.367    21.030     6.148
   112   7 N        2.630    -0.346    28.925     7.988
   113   1 H        0.860     0.181     1.210     1.723
   114   6 C        3.792     0.022    20.209     6.402
   115   1 H        0.924     0.066     2.132     2.283
   116   6 C        3.807    -0.047    21.412     6.587
   117   1 H        0.924     0.030     2.584     2.514
   118   1 H        0.925     0.048     2.339     2.392
   119   6 C        3.801    -0.090    22.207     6.709
   120   1 H        0.925     0.056     2.246     2.343
   121   1 H        0.924     0.040     2.444     2.445
   122   6 C        2.689     0.369    20.750     7.455
   123   8 O        0.857    -0.654    27.480     7.028
   124   8 O        0.857    -0.641    27.159     6.987
   125   6 C        2.757     0.271    22.428     7.755
   126   8 O        0.859    -0.510    24.007     6.569
   127   7 N        2.702    -0.167    24.623     7.370
   128   1 H        0.860     0.219     1.016     1.579
   129   6 C        3.817     0.016    20.290     6.411
   130   1 H        0.924     0.070     2.091     2.261
   131   6 C        3.856    -0.017    20.843     6.493
   132   1 H        0.924     0.043     2.405     2.425
   133   6 C        3.766    -0.112    22.685     6.788
   134   1 H        0.924     0.034     2.534     2.490
   135   1 H        0.925     0.052     2.300     2.372
   136   1 H        0.925     0.042     2.419     2.432
   137   6 C        3.751    -0.124    22.949     6.832
   138   1 H        0.924     0.053     2.286     2.364
   139   1 H        0.924     0.050     2.325     2.385
   140   1 H        0.925     0.068     2.103     2.268
   141   6 C        2.764     0.273    22.387     7.749
   142   8 O        0.858    -0.506    23.917     6.557
   143   7 N        2.691    -0.156    24.365     7.331
   144   1 H        0.860     0.222     1.001     1.567
   145   6 C        3.805     0.024    20.164     6.393
   146   1 H        0.924     0.089     1.887     2.148
   147   6 C        3.857    -0.023    20.944     6.509
   148   1 H        0.924     0.066     2.128     2.281
   149   6 C        3.768    -0.129    23.005     6.836
   150   1 H        0.924     0.070     2.088     2.260
   151   1 H        0.924     0.050     2.316     2.380
   152   1 H        0.925     0.048     2.350     2.397
   153   6 C        3.812    -0.062    21.685     6.628
   154   1 H        0.924     0.028     2.610     2.527
   155   1 H        0.924     0.039     2.463     2.454
   156   6 C        3.749    -0.117    22.800     6.810
   157   1 H        0.925     0.050     2.323     2.384
   158   1 H        0.924     0.053     2.282     2.362
   159   1 H        0.924     0.044     2.392     2.419
   160   6 C        2.758     0.210    23.542     7.946
   161   8 O        0.856    -0.371    21.115     6.161
   162   7 N        2.636    -0.334    28.609     7.944
   163   1 H        0.860     0.193     1.142     1.674
   164   6 C        3.784     0.041    19.900     6.354
   165   1 H        0.924     0.089     1.889     2.149
   166   6 C        3.815    -0.071    21.848     6.653
   167   1 H        0.925     0.065     2.143     2.289
   168   1 H        0.925     0.055     2.255     2.348
   169   6 C        2.965     0.007    27.869     8.659
   170   6 C        2.907    -0.042    29.033     8.835
   171   1 H        0.926     0.056     2.249     2.345
   172   6 C        2.912    -0.068    29.692     8.935
   173   1 H        0.925     0.040     2.452     2.449
   174   6 C        2.829     0.138    24.972     8.189
   175   8 O        1.660    -0.445    21.739     6.294
   176   1 H        0.806     0.340     0.613     1.229
   177   6 C        2.913    -0.060    29.496     8.906
   178   1 H        0.925     0.046     2.376     2.410
   179   6 C        2.913    -0.047    29.168     8.856
   180   1 H        0.926     0.058     2.217     2.328
   181   6 C        2.765     0.198    23.789     7.988
   182   8 O        0.856    -0.400    21.681     6.243
   183   7 N        2.632    -0.313    28.068     7.868
   184   1 H        0.860     0.194     1.137     1.670
   185   6 C        3.786     0.040    19.910     6.355
   186   1 H        0.924     0.068     2.108     2.271
   187   6 C        3.812    -0.069    21.813     6.648
   188   1 H        0.924     0.053     2.289     2.366
   189   1 H        0.924     0.061     2.189     2.313
   190   6 C        3.092     0.038    27.051     8.525
   191   7 N        1.927    -0.320    29.138     8.004
   192   6 C        3.022     0.080    26.201     8.396
   193   1 H        0.926     0.060     2.203     2.321
   194   7 N        2.809    -0.094    23.082     7.136
   195   1 H        0.860     0.215     1.031     1.591
   196   6 C        3.007    -0.037    28.891     8.817
   197   1 H        0.926     0.050     2.319     2.381
   198   6 C        2.758     0.207    23.608     7.957
   199   8 O        0.857    -0.336    20.451     6.063
   200   7 N        2.633    -0.339    28.739     7.962
   201   1 H        0.860     0.177     1.229     1.737
   202   6 C        3.787     0.029    20.097     6.385
   203   1 H        0.925     0.063     2.163     2.300
   204   6 C        3.852    -0.021    20.920     6.505
   205   1 H        0.925     0.057     2.239     2.340
   206   6 C        3.757    -0.119    22.840     6.814
   207   1 H        0.924     0.038     2.475     2.460
   208   1 H        0.924     0.042     2.417     2.431
   209   1 H        0.925     0.060     2.196     2.317
   210   6 C        3.806    -0.062    21.682     6.629
   211   1 H        0.925     0.032     2.563     2.504
   212   1 H        0.924     0.040     2.443     2.444
   213   6 C        3.749    -0.110    22.671     6.791
   214   1 H        0.924     0.034     2.530     2.488
   215   1 H        0.925     0.033     2.545     2.495
   216   1 H        0.924     0.040     2.452     2.449
   217   6 C        2.753     0.272    22.396     7.749
   218   8 O        0.861    -0.517    24.159     6.590
   219   7 N        2.694    -0.170    24.671     7.377
   220   1 H        0.860     0.231     0.963     1.537
   221   6 C        3.801     0.026    20.136     6.389
   222   1 H        0.925     0.076     2.025     2.225
   223   6 C        3.856    -0.021    20.904     6.503
   224   1 H        0.925     0.055     2.262     2.352
   225   6 C        3.763    -0.126    22.964     6.831
   226   1 H        0.924     0.060     2.197     2.318
   227   1 H        0.924     0.041     2.437     2.441
   228   1 H        0.925     0.056     2.250     2.346
   229   6 C        3.804    -0.059    21.625     6.620
   230   1 H        0.925     0.041     2.438     2.442
   231   1 H        0.925     0.050     2.324     2.384
   232   6 C        3.752    -0.108    22.623     6.783
   233   1 H        0.925     0.027     2.633     2.537
   234   1 H        0.925     0.039     2.468     2.457
   235   1 H        0.925     0.037     2.487     2.466
   236   6 C        2.764     0.205    23.636     7.962
   237   8 O        0.858    -0.359    20.871     6.125
   238   1 H        0.860     0.214     1.039     1.597
   239   1 H        0.923     0.059     2.212     2.326
   240   1 H        0.860     0.204     1.084     1.631
   241   1 H        0.923     0.048     2.339     2.392
   242   1 H        0.860     0.196     1.129     1.665
   243   1 H        0.923     0.071     2.070     2.250
   244   1 H        0.860     0.194     1.138     1.671
   245   1 H        0.923     0.075     2.037     2.232
   246   1 H        0.860     0.219     1.015     1.578
   247   1 H        0.923     0.082     1.960     2.189
   248   1 H        0.860     0.200     1.105     1.647
   249   1 H        0.923     0.082     1.955     2.186

 Mol. C6AA /au·bohr⁶  :     641901.590886
 Mol. C8AA /au·bohr⁸  :   14986879.119383
 Mol. α(0) /au        :       1224.438528


Wiberg/Mayer (AO) data.
largest (>0.10) Wiberg bond orders for each atom

 ---------------------------------------------------------------------------
     #   Z sym  total        # sym  WBO       # sym  WBO       # sym  WBO
 ---------------------------------------------------------------------------
     1   6 C    3.883 --    17 O    1.671     2 N    1.188    21 C    0.938
     2   7 N    3.496 --     3 C    1.202     1 C    1.188    33 H    0.858
                            17 O    0.133
     3   6 C    3.511 --     2 N    1.202    14 C    1.095     5 C    1.042
     4   6 C    3.915 --    15 C    1.001    34 H    0.970    35 H    0.970
                            12 O    0.936
     5   6 C    3.968 --     3 C    1.042     6 C    0.956    36 H    0.951
                            37 H    0.945
     6   6 C    3.947 --    11 C    1.414     7 C    1.414     5 C    0.956
                             9 C    0.109
     7   6 C    3.985 --     8 C    1.436     6 C    1.414    38 H    0.967
                            10 C    0.113
     8   6 C    3.986 --     9 C    1.441     7 C    1.436    39 H    0.965
                            11 C    0.109
     9   6 C    3.985 --     8 C    1.441    10 C    1.428    40 H    0.964
                             6 C    0.109
    10   6 C    3.986 --    11 C    1.445     9 C    1.428    41 H    0.967
                             7 C    0.113
    11   6 C    3.987 --    10 C    1.445     6 C    1.414    42 H    0.965
                             8 C    0.109
    12   8 O    2.242 --    14 C    1.093     4 C    0.936    13 O    0.147
    13   8 O    1.864 --    14 C    1.603    12 O    0.147
    14   6 C    3.865 --    13 O    1.603     3 C    1.095    12 O    1.093
    15   6 C    3.983 --     4 C    1.001    43 H    0.986    45 H    0.981
                            44 H    0.979
    16   6 C    3.969 --    18 C    1.008    22 N    0.987    46 H    0.967
                            47 H    0.957
    17   8 O    1.909 --     1 C    1.671     2 N    0.133
    18   6 C    3.977 --    16 C    1.008    19 S    0.983    48 H    0.973
                            49 H    0.967
    19  16 S    2.161 --    20 C    0.997    18 C    0.983
    20   6 C    3.970 --    19 S    0.997    21 C    0.990    50 H    0.966
                            51 H    0.961
    21   6 C    3.967 --    20 C    0.990    22 N    0.975    52 H    0.942
                             1 C    0.938
    22   7 N    3.172 --    16 C    0.987    21 C    0.975    23 S    0.888
    23  16 S    4.812 --    31 O    1.562    30 O    1.532    22 N    0.888
                            24 C    0.733
    24   6 C    3.938 --    25 C    1.406    29 C    1.401    23 S    0.733
    25   6 C    3.982 --    26 C    1.443    24 C    1.406    53 H    0.965
                            28 C    0.104
    26   6 C    3.982 --    25 C    1.443    27 C    1.392    54 H    0.955
                            29 C    0.106
    27   6 C    3.978 --    28 C    1.402    26 C    1.392    32 C    1.028
    28   6 C    3.983 --    29 C    1.440    27 C    1.402    55 H    0.963
                            25 C    0.104
    29   6 C    3.981 --    28 C    1.440    24 C    1.401    56 H    0.965
                            26 C    0.106
    30   8 O    1.831 --    23 S    1.532    31 O    0.106
    31   8 O    1.858 --    23 S    1.562    30 O    0.106
    32   6 C    3.981 --    27 C    1.028    57 H    0.981    58 H    0.968
                            59 H    0.949
    33   1 H    0.943 --     2 N    0.858
    34   1 H    0.995 --     4 C    0.970
    35   1 H    0.993 --     4 C    0.970
    36   1 H    0.991 --     5 C    0.951
    37   1 H    0.976 --     5 C    0.945
    38   1 H    0.997 --     7 C    0.967
    39   1 H    0.996 --     8 C    0.965
    40   1 H    0.996 --     9 C    0.964
    41   1 H    0.998 --    10 C    0.967
    42   1 H    0.999 --    11 C    0.965
    43   1 H    0.997 --    15 C    0.986
    44   1 H    0.996 --    15 C    0.979
    45   1 H    0.997 --    15 C    0.981
    46   1 H    0.998 --    16 C    0.967
    47   1 H    0.996 --    16 C    0.957
    48   1 H    0.996 --    18 C    0.973
    49   1 H    0.993 --    18 C    0.967
    50   1 H    0.993 --    20 C    0.966
    51   1 H    0.989 --    20 C    0.961
    52   1 H    0.990 --    21 C    0.942
    53   1 H    0.996 --    25 C    0.965
    54   1 H    0.993 --    26 C    0.955
    55   1 H    0.993 --    28 C    0.963
    56   1 H    0.995 --    29 C    0.965
    57   1 H    0.994 --    32 C    0.981
    58   1 H    0.993 --    32 C    0.968
    59   1 H    0.990 --    32 C    0.949
    60   7 N    2.977 --    62 C    1.027    61 H    0.948   238 H    0.938
    61   1 H    0.971 --    60 N    0.948
    62   6 C    3.968 --    60 N    1.027    63 H    0.950    78 C    0.939
                            64 C    0.936
    63   1 H    0.992 --    62 C    0.950
    64   6 C    3.967 --    67 C    1.014    65 H    0.969    66 H    0.958
                            62 C    0.936
    65   1 H    0.994 --    64 C    0.969
    66   1 H    0.994 --    64 C    0.958
    67   6 C    3.985 --    76 C    1.411    68 C    1.404    64 C    1.014
                            72 C    0.108
    68   6 C    3.986 --    70 C    1.447    67 C    1.404    69 H    0.968
                            74 C    0.112
    69   1 H    0.997 --    68 C    0.968
    70   6 C    3.990 --    68 C    1.447    72 C    1.435    71 H    0.971
                            76 C    0.110
    71   1 H    0.997 --    70 C    0.971
    72   6 C    3.987 --    74 C    1.438    70 C    1.435    73 H    0.972
                            67 C    0.108
    73   1 H    0.997 --    72 C    0.972
    74   6 C    3.991 --    76 C    1.440    72 C    1.438    75 H    0.972
                            68 C    0.112
    75   1 H    0.999 --    74 C    0.972
    76   6 C    3.989 --    74 C    1.440    67 C    1.411    77 H    0.969
                            70 C    0.110
    77   1 H    1.000 --    76 C    0.969
    78   6 C    3.933 --    79 O    1.622    80 N    1.302    62 C    0.939
    79   8 O    1.927 --    78 C    1.622    80 N    0.189
    80   7 N    3.466 --    78 C    1.302    82 C    0.986    81 H    0.903
                            79 O    0.189
    81   1 H    0.950 --    80 N    0.903
    82   6 C    3.976 --    90 C    0.993    80 N    0.986    84 C    0.944
                            83 H    0.943
    83   1 H    0.993 --    82 C    0.943
    84   6 C    3.974 --    85 H    0.973    86 H    0.952    82 C    0.944
                            87 C    0.928
    85   1 H    0.998 --    84 C    0.973
    86   1 H    0.997 --    84 C    0.952
    87   6 C    3.937 --    88 O    1.498    89 O    1.490    84 C    0.928
    88   8 O    1.794 --    87 C    1.498    89 O    0.222
    89   8 O    1.780 --    87 C    1.490    88 O    0.222
    90   6 C    3.896 --    91 O    1.887    82 C    0.993   239 H    0.940
    91   8 O    2.059 --    90 C    1.887
    92   7 N    2.987 --    94 C    1.031    93 H    0.948   240 H    0.945
    93   1 H    0.964 --    92 N    0.948
    94   6 C    3.978 --    92 N    1.031   110 C    0.978    95 H    0.947
                            96 C    0.932
    95   1 H    0.993 --    94 C    0.947
    96   6 C    3.970 --    99 C    1.005    97 H    0.966    98 H    0.964
                            94 C    0.932
    97   1 H    0.996 --    96 C    0.966
    98   1 H    0.994 --    96 C    0.964
    99   6 C    3.984 --   100 C    1.414   108 C    1.410    96 C    1.005
                           104 C    0.107
   100   6 C    3.986 --   102 C    1.438    99 C    1.414   101 H    0.967
                           106 C    0.111
   101   1 H    0.999 --   100 C    0.967
   102   6 C    3.989 --   100 C    1.438   104 C    1.438   103 H    0.970
                           108 C    0.112
   103   1 H    0.998 --   102 C    0.970
   104   6 C    3.987 --   102 C    1.438   106 C    1.437   105 H    0.970
                            99 C    0.107
   105   1 H    0.998 --   104 C    0.970
   106   6 C    3.989 --   108 C    1.442   104 C    1.437   107 H    0.972
                           100 C    0.111
   107   1 H    0.998 --   106 C    0.972
   108   6 C    3.987 --   106 C    1.442    99 C    1.410   109 H    0.971
                           102 C    0.112
   109   1 H    0.998 --   108 C    0.971
   110   6 C    3.878 --   111 O    1.899    94 C    0.978   241 H    0.934
   111   8 O    2.055 --   110 C    1.899
   112   7 N    3.004 --   114 C    1.029   113 H    0.951   242 H    0.948
   113   1 H    0.967 --   112 N    0.951
   114   6 C    3.968 --   112 N    1.029   116 C    0.971   115 H    0.946
                           125 C    0.927
   115   1 H    0.991 --   114 C    0.946
   116   6 C    3.981 --   119 C    1.008   114 C    0.971   117 H    0.969
                           118 H    0.969
   117   1 H    0.999 --   116 C    0.969
   118   1 H    0.998 --   116 C    0.969
   119   6 C    3.966 --   116 C    1.008   121 H    0.966   120 H    0.957
                           122 C    0.937
   120   1 H    0.996 --   119 C    0.957
   121   1 H    0.998 --   119 C    0.966
   122   6 C    3.923 --   124 O    1.493   123 O    1.470   119 C    0.937
   123   8 O    1.740 --   122 C    1.470   124 O    0.207
   124   8 O    1.768 --   122 C    1.493   123 O    0.207
   125   6 C    3.930 --   126 O    1.614   127 N    1.312   114 C    0.927
   126   8 O    1.921 --   125 C    1.614   127 N    0.192
   127   7 N    3.464 --   125 C    1.312   129 C    0.981   128 H    0.900
                           126 O    0.192
   128   1 H    0.952 --   127 N    0.900
   129   6 C    3.963 --   127 N    0.981   131 C    0.959   141 C    0.946
                           130 H    0.938
   130   1 H    0.995 --   129 C    0.938
   131   6 C    3.990 --   137 C    1.008   133 C    1.003   132 H    0.964
                           129 C    0.959
   132   1 H    0.997 --   131 C    0.964
   133   6 C    3.991 --   131 C    1.003   135 H    0.986   134 H    0.984
                           136 H    0.980
   134   1 H    0.999 --   133 C    0.984
   135   1 H    0.997 --   133 C    0.986
   136   1 H    0.998 --   133 C    0.980
   137   6 C    3.991 --   131 C    1.008   138 H    0.985   139 H    0.984
                           140 H    0.983
   138   1 H    0.997 --   137 C    0.985
   139   1 H    0.998 --   137 C    0.984
   140   1 H    0.995 --   137 C    0.983
   141   6 C    3.950 --   142 O    1.623   143 N    1.305   129 C    0.946
   142   8 O    1.949 --   141 C    1.623   143 N    0.193
   143   7 N    3.471 --   141 C    1.305   145 C    0.986   144 H    0.899
                           142 O    0.193
   144   1 H    0.951 --   143 N    0.899
   145   6 C    3.968 --   160 C    0.988   143 N    0.986   147 C    0.943
                           146 H    0.932
   146   1 H    0.992 --   145 C    0.932
   147   6 C    3.984 --   149 C    1.003   153 C    0.997   148 H    0.964
                           145 C    0.943
   148   1 H    0.995 --   147 C    0.964
   149   6 C    3.991 --   147 C    1.003   152 H    0.981   150 H    0.979
                           151 H    0.976
   150   1 H    0.994 --   149 C    0.979
   151   1 H    0.997 --   149 C    0.976
   152   1 H    0.998 --   149 C    0.981
   153   6 C    3.994 --   156 C    1.017   147 C    0.997   154 H    0.976
                           155 H    0.962
   154   1 H    0.999 --   153 C    0.976
   155   1 H    0.998 --   153 C    0.962
   156   6 C    3.992 --   153 C    1.017   159 H    0.986   158 H    0.985
                           157 H    0.985
   157   1 H    0.997 --   156 C    0.985
   158   1 H    0.997 --   156 C    0.985
   159   1 H    0.998 --   156 C    0.986
   160   6 C    3.892 --   161 O    1.893   145 C    0.988   243 H    0.934
   161   8 O    2.058 --   160 C    1.893
   162   7 N    2.996 --   164 C    1.034   244 H    0.950   163 H    0.945
   163   1 H    0.963 --   162 N    0.945
   164   6 C    3.974 --   162 N    1.034   181 C    0.975   166 C    0.940
                           165 H    0.934
   165   1 H    0.989 --   164 C    0.934
   166   6 C    3.982 --   169 C    1.008   168 H    0.972   167 H    0.967
                           164 C    0.940
   167   1 H    0.994 --   166 C    0.967
   168   1 H    0.996 --   166 C    0.972
   169   6 C    3.984 --   179 C    1.412   170 C    1.399   166 C    1.008
   170   6 C    3.986 --   172 C    1.459   169 C    1.399   171 H    0.966
                           177 C    0.107
   171   1 H    0.997 --   170 C    0.966
   172   6 C    3.985 --   170 C    1.459   174 C    1.362   173 H    0.963
                           179 C    0.106
   173   1 H    0.998 --   172 C    0.963
   174   6 C    3.926 --   177 C    1.373   172 C    1.362   175 O    1.061
   175   8 O    2.075 --   174 C    1.061   176 H    0.862
   176   1 H    0.884 --   175 O    0.862
   177   6 C    3.984 --   179 C    1.442   174 C    1.373   178 H    0.970
                           170 C    0.107
   178   1 H    0.998 --   177 C    0.970
   179   6 C    3.982 --   177 C    1.442   169 C    1.412   180 H    0.966
                           172 C    0.106
   180   1 H    0.996 --   179 C    0.966
   181   6 C    3.857 --   182 O    1.872   164 C    0.975   245 H    0.934
   182   8 O    2.015 --   181 C    1.872
   183   7 N    2.969 --   185 C    1.020   246 H    0.935   184 H    0.931
   184   1 H    0.962 --   183 N    0.931
   185   6 C    3.970 --   183 N    1.020   198 C    0.981   186 H    0.955
                           187 C    0.934
   186   1 H    0.983 --   185 C    0.955
   187   6 C    3.963 --   190 C    1.011   188 H    0.968   189 H    0.959
                           185 C    0.934
   188   1 H    0.995 --   187 C    0.968
   189   1 H    0.996 --   187 C    0.959
   190   6 C    3.969 --   196 C    1.564   191 N    1.265   187 C    1.011
   191   7 N    2.989 --   192 C    1.528   190 C    1.265   194 N    0.106
   192   6 C    3.952 --   191 N    1.528   194 N    1.289   193 H    0.963
                           196 C    0.115
   193   1 H    0.996 --   192 C    0.963
   194   7 N    3.596 --   192 C    1.289   196 C    1.206   195 H    0.923
                           191 N    0.106
   195   1 H    0.953 --   194 N    0.923
   196   6 C    3.930 --   190 C    1.564   194 N    1.206   197 H    0.966
                           192 C    0.115
   197   1 H    0.997 --   196 C    0.966
   198   6 C    3.883 --   199 O    1.906   185 C    0.981   247 H    0.936
   199   8 O    2.081 --   198 C    1.906
   200   7 N    2.970 --   202 C    1.019   201 H    0.950   248 H    0.943
   201   1 H    0.968 --   200 N    0.950
   202   6 C    3.968 --   200 N    1.019   204 C    0.955   217 C    0.949
                           203 H    0.937
   203   1 H    0.977 --   202 C    0.937
   204   6 C    3.979 --   206 C    1.006   210 C    0.995   205 H    0.962
                           202 C    0.955
   205   1 H    0.996 --   204 C    0.962
   206   6 C    3.989 --   204 C    1.006   207 H    0.985   209 H    0.980
                           208 H    0.979
   207   1 H    0.998 --   206 C    0.985
   208   1 H    0.998 --   206 C    0.979
   209   1 H    0.996 --   206 C    0.980
   210   6 C    3.993 --   213 C    1.017   204 C    0.995   211 H    0.974
                           212 H    0.967
   211   1 H    0.999 --   210 C    0.974
   212   1 H    0.997 --   210 C    0.967
   213   6 C    3.995 --   210 C    1.017   216 H    0.988   215 H    0.987
                           214 H    0.984
   214   1 H    0.998 --   213 C    0.984
   215   1 H    0.998 --   213 C    0.987
   216   1 H    0.998 --   213 C    0.988
   217   6 C    3.944 --   218 O    1.615   219 N    1.304   202 C    0.949
   218   8 O    1.927 --   217 C    1.615   219 N    0.194
   219   7 N    3.479 --   217 C    1.304   221 C    0.966   220 H    0.891
                           218 O    0.194
   220   1 H    0.947 --   219 N    0.891
   221   6 C    3.962 --   236 C    0.971   219 N    0.966   222 H    0.958
                           223 C    0.957
   222   1 H    0.994 --   221 C    0.958
   223   6 C    3.988 --   225 C    1.004   229 C    0.995   224 H    0.960
                           221 C    0.957
   224   1 H    0.997 --   223 C    0.960
   225   6 C    3.992 --   223 C    1.004   228 H    0.984   227 H    0.981
                           226 H    0.980
   226   1 H    0.996 --   225 C    0.980
   227   1 H    0.998 --   225 C    0.981
   228   1 H    0.997 --   225 C    0.984
   229   6 C    3.995 --   232 C    1.017   223 C    0.995   231 H    0.975
                           230 H    0.973
   230   1 H    0.998 --   229 C    0.973
   231   1 H    0.997 --   229 C    0.975
   232   6 C    3.991 --   229 C    1.017   233 H    0.984   234 H    0.984
                           235 H    0.977
   233   1 H    0.999 --   232 C    0.984
   234   1 H    0.998 --   232 C    0.984
   235   1 H    0.998 --   232 C    0.977
   236   6 C    3.880 --   237 O    1.896   221 C    0.971   249 H    0.936
   237   8 O    2.065 --   236 C    1.896
   238   1 H    0.954 --    60 N    0.938
   239   1 H    0.996 --    90 C    0.940
   240   1 H    0.958 --    92 N    0.945
   241   1 H    0.993 --   110 C    0.934
   242   1 H    0.961 --   112 N    0.948
   243   1 H    0.995 --   160 C    0.934
   244   1 H    0.962 --   162 N    0.950
   245   1 H    0.991 --   181 C    0.934
   246   1 H    0.952 --   183 N    0.935
   247   1 H    0.992 --   198 C    0.936
   248   1 H    0.960 --   200 N    0.943
   249   1 H    0.993 --   236 C    0.936
 ---------------------------------------------------------------------------

Topologies differ in total number of bonds
Writing topology from bond orders to xtbtopo.mol

molecular dipole:
                 x           y           z       tot (Debye)
 q only:      -45.595     -52.711    -114.453
   full:      -45.685     -52.712    -113.767     339.194
molecular quadrupole (traceless):
Note: The following floating-point exceptions are signalling: IEEE_UNDERFLOW_FLAG IEEE_DENORMAL
normal termination of xtb
                xx          xy          yy          xz          yz          zz
 q only:     5521.737   -3821.220    5037.446   -8001.051   -8718.600  -10559.183
  q+dip:     5443.134   -3807.847    4969.579   -7966.174   -8696.270  -10412.713
   full:     5444.172   -3808.830    4973.492   -7968.505   -8695.562  -10417.665


           -------------------------------------------------
          | TOTAL ENERGY             -380.996879801742 Eh   |
          | GRADIENT NORM               0.294271762054 Eh/α |
          | HOMO-LUMO GAP               0.297314986183 eV   |
           -------------------------------------------------

------------------------------------------------------------------------
 * finished run on 2026/01/05 at 09:06:54.815     
------------------------------------------------------------------------
 total:
 * wall-time:     0 d,  0 h,  0 min,  2.360 sec
 *  cpu-time:     0 d,  0 h,  0 min, 34.039 sec
 * ratio c/w:    14.425 speedup
 SCF:
 * wall-time:     0 d,  0 h,  0 min,  2.271 sec
 *  cpu-time:     0 d,  0 h,  0 min, 32.738 sec
 * ratio c/w:    14.414 speedup

