      -----------------------------------------------------------      
     |                   =====================                   |     
     |                           x T B                           |     
     |                   =====================                   |     
     |                         S. Grimme                         |     
     |          Mulliken Center for Theoretical Chemistry        |     
     |                    University of Bonn                     |     
      -----------------------------------------------------------      

   * xtb version 6.7.1 (edcfbbe) compiled by 'conda@c0858423619e' on 2025-09-04

   xtb is free software: you can redistribute it and/or modify it under
   the terms of the GNU Lesser General Public License as published by
   the Free Software Foundation, either version 3 of the License, or
   (at your option) any later version.
   
   xtb is distributed in the hope that it will be useful,
   but WITHOUT ANY WARRANTY; without even the implied warranty of
   MERCHANTABILITY or FITNESS FOR A PARTICULAR PURPOSE.  See the
   GNU Lesser General Public License for more details.
   
   Cite this work as:
   * C. Bannwarth, E. Caldeweyher, S. Ehlert, A. Hansen, P. Pracht,
     J. Seibert, S. Spicher, S. Grimme, WIREs Comput. Mol. Sci., 2020, 11,
     e01493. DOI: 10.1002/wcms.1493
   
   for GFN2-xTB:
   * C. Bannwarth, S. Ehlert and S. Grimme., J. Chem. Theory Comput., 2019,
     15, 1652-1671. DOI: 10.1021/acs.jctc.8b01176
   for GFN1-xTB:
   * S. Grimme, C. Bannwarth, P. Shushkov, J. Chem. Theory Comput., 2017,
     13, 1989-2009. DOI: 10.1021/acs.jctc.7b00118
   for GFN0-xTB:
   * P. Pracht, E. Caldeweyher, S. Ehlert, S. Grimme, ChemRxiv, 2019, preprint.
     DOI: 10.26434/chemrxiv.8326202.v1
   for GFN-FF:
   * S. Spicher and S. Grimme, Angew. Chem. Int. Ed., 2020, 59, 15665-15673.
     DOI: 10.1002/anie.202004239
   
   for ALPB and GBSA implicit solvation:
   * S. Ehlert, M. Stahn, S. Spicher, S. Grimme, J. Chem. Theory Comput.,
     2021, 17, 4250-4261. DOI: 10.1021/acs.jctc.1c00471
   
   for ddCOSMO and CPCM-X implicit solvation:
   * M. Stahn, S. Ehlert, S. Grimme, J. Phys. Chem. A,
     2023, XX, XXXX-XXXX. DOI: 10.1021/acs.jpca.3c04382
   
   for DFT-D4:
   * E. Caldeweyher, C. Bannwarth and S. Grimme, J. Chem. Phys., 2017,
     147, 034112. DOI: 10.1063/1.4993215
   * E. Caldeweyher, S. Ehlert, A. Hansen, H. Neugebauer, S. Spicher,
     C. Bannwarth and S. Grimme, J. Chem. Phys., 2019, 150, 154122.
     DOI: 10.1063/1.5090222
   * E. Caldeweyher, J.-M. Mewes, S. Ehlert and S. Grimme, Phys. Chem. Chem. Phys.
     2020, 22, 8499-8512. DOI: 10.1039/D0CP00502A
   
   for sTDA-xTB:
   * S. Grimme and C. Bannwarth, J. Chem. Phys., 2016, 145, 054103.
     DOI: 10.1063/1.4959605
   
   in the mass-spec context:
   * V. Asgeirsson, C. Bauer and S. Grimme, Chem. Sci., 2017, 8, 4879.
     DOI: 10.1039/c7sc00601b
   * J. Koopman and S. Grimme, ACS Omega 2019, 4, 12, 15120-15133.
     DOI: 10.1021/acsomega.9b02011
   
   for metadynamics refer to:
   * S. Grimme, J. Chem. Theory Comput., 2019, 155, 2847-2862
     DOI: 10.1021/acs.jctc.9b00143
   
   for SPH calculations refer to:
   * S. Spicher and S. Grimme, J. Chem. Theory Comput., 2021, 17, 1701-1714
     DOI: 10.1021/acs.jctc.0c01306
   
   for ONIOM refer to:
   * C. Plett, A. Katbashev, S. Ehlert, S. Grimme, M. Bursch,
     Phys. Chem. Chem. Phys., 2023, 25, 17860-17868. DOI: 10.1039/D3CP02178E
   
   for DIPRO refer to:
   * J. Kohn, N. Gildemeister, S. Grimme, D. Fazzi, A. Hansen,
     J. Chem. Phys., 2023, just accepted.
   
   for PTB refer to:
   * S. Grimme, M. Mueller, A. Hansen, J. Chem. Phys., 2023, 158, 124111.
     DOI: 10.1063/5.0137838
   
   with help from (in alphabetical order)
   P. Atkinson, C. Bannwarth, F. Bohle, G. Brandenburg, E. Caldeweyher
   M. Checinski, S. Dohm, S. Ehlert, S. Ehrlich, I. Gerasimov, C. Hölzer
   A. Katbashev, J. Kohn, J. Koopman, C. Lavigne, S. Lehtola, F. März, M. Müller,
   F. Musil, H. Neugebauer, J. Pisarek, C. Plett, P. Pracht, F. Pultar,
   J. Seibert, P. Shushkov, S. Spicher, M. Stahn, M. Steiner, T. Strunk,
   J. Stückrath, T. Rose, and J. Unsleber
   
 * started run on 2026/01/05 at 09:07:49.083     
   ID    Z sym.   atoms
    1    7 N      1, 22, 42, 54, 65, 78, 81, 84, 89, 105, 111, 125, 145, 153,
                  156, 162, 181
    2    1 H      2, 4, 6, 7, 10, 12, 15, 17, 19, 23, 25, 27, 28, 31, 33, 35,
                  37, 39, 43, 45, 47, 48, 55, 57, 59, 60, 62, 66, 68, 70, 71,
                  73, 74, 76, 77, 79, 82, 83, 85, 86, 90, 92, 94, 95, 97, 98,
                  100, 101, 103, 104, 106-108, 113, 114, 116, 117, 119, 120,
                  122, 126, 128, 130, 131, 134, 136, 138, 140, 142, 146, 148,
                  150, 151, 155, 157, 159, 163, 165, 167, 169-171, 173, 174,
                  176-178, 182, 184, 186, 188-190, 192, 193, 195-197, 200-213
    3    6 C      3, 5, 8, 9, 11, 13, 16, 18, 20, 24, 26, 29, 30, 32, 34, 36,
                  38, 40, 44, 46, 49, 52, 56, 58, 63, 67, 69, 72, 75, 80, 87,
                  91, 93, 96, 99, 102, 109, 112, 115, 118, 121, 123, 127,
                  129, 132, 133, 135, 137, 139, 141, 143, 147, 149, 152, 154,
                  158, 160, 164, 166, 168, 172, 175, 179, 183, 185, 187, 191,
                  194, 198
    4    8 O      14, 21, 41, 50, 51, 53, 61, 64, 88, 110, 124, 144, 161,
                  180, 199

           -------------------------------------------------
          |                Calculation Setup                |
           -------------------------------------------------

          program call               : xtb /home/antonio_mesquita/Documentos/gmx_ISA_project/testes_arquivos_primeiros/gmx_ISA_testes/testes_qm_xtb/QM_analysis/QM_FRAMES_CAPPED/frame_5000ps/residues_pocket_capped_5000ps.xyz --gfn 2 --alpb water --chrg 1 --etemp 1500 --cycles 1000
          coordinate file            : /home/antonio_mesquita/Documentos/gmx_ISA_project/testes_arquivos_primeiros/gmx_ISA_testes/testes_qm_xtb/QM_analysis/QM_FRAMES_CAPPED/frame_5000ps/residues_pocket_capped_5000ps.xyz
          omp threads                :                    16


molecular fragmentation (1/2 indicates fragments):
111111111111111111111222222222222222222222222222222222222222222222222222
222222222222222222222222222222222222222222222222222222222222222222222222
222222222222222222222222222222222222222222222222222222211222222222222
# atoms in fragment 1/2:    23   190
 fragment masses (1/2) :      165.19     1254.55
CMA distance (Bohr)    :  10.341
constraining FC (au)   :  0.0500

           -------------------------------------------------
          |                 G F N 2 - x T B                 |
           -------------------------------------------------

        Reference                      10.1021/acs.jctc.8b01176
      * Hamiltonian:
        H0-scaling (s, p, d)           1.850000    2.230000    2.230000
        zeta-weighting                 0.500000
      * Dispersion:
        s8                             2.700000
        a1                             0.520000
        a2                             5.000000
        s9                             5.000000
      * Repulsion:
        kExp                           1.500000    1.000000
        rExp                           1.000000
      * Coulomb:
        alpha                          2.000000
        third order                    shell-resolved
        anisotropic                    true
        a3                             3.000000
        a5                             4.000000
        cn-shift                       1.200000
        cn-exp                         4.000000
        max-rad                        5.000000

      * Solvation model:               ALPB
        Solvent                        water
        Parameter file                 internal GFN2-xTB/ALPB
        Dielectric constant                8.0200E+01
        Reference state                gsolv [1 M gas/solution]
        Free energy shift                  1.0808E-03 Eh       6.7819E-01 kcal/mol
        Temperature                        2.9815E+02 K
        Density                            1.0000E+00 kg/L
        Solvent mass                       1.8000E+01 g/mol
        Interaction kernel             P16
        Born radius scaling (c1)           1.4744E+00
        Born radii integrator          GBOBC
        Born offset                        0.0000E+00 a0       0.0000E+00 AA
        H-bond correction              true
        Ion screening                  false
        Surface tension                    1.0000E-05 Eh       1.5569E+01 dyn/cm
        Grid points                               230 per atom

          ...................................................
          :                      SETUP                      :
          :.................................................:
          :  # basis functions                 516          :
          :  # atomic orbitals                 516          :
          :  # shells                          314          :
          :  # electrons                       562          :
          :  max. iterations                   250          :
          :  Hamiltonian                  GFN2-xTB          :
          :  restarted?                      false          :
          :  GBSA solvation                   true          :
          :  PC potential                    false          :
          :  electronic temp.         1500.0000000     K    :
          :  accuracy                    1.0000000          :
          :  -> integral cutoff          0.2500000E+02      :
          :  -> integral neglect         0.1000000E-07      :
          :  -> SCF convergence          0.1000000E-05 Eh   :
          :  -> wf. convergence          0.1000000E-03 e    :
          :  Broyden damping             0.4000000          :
          :  net charge                          1          :
          :  unpaired electrons                  0          :
          ...................................................

 iter      E             dE          RMSdq      gap      omega  full diag
   1   -318.2949163 -0.318295E+03  0.437E+00    1.97       0.0  T
   2   -318.9138933 -0.618977E+00  0.227E+00    1.01       1.0  T
   3   -318.9332971 -0.194038E-01  0.123E+00    1.62       1.0  T
   4   -318.9684412 -0.351441E-01  0.282E-01    1.08       1.0  T
   5   -318.9763380 -0.789680E-02  0.111E-01    1.22       1.0  T
   6   -318.9768072 -0.469203E-03  0.576E-02    1.16       1.0  T
   7   -318.9769347 -0.127494E-03  0.273E-02    1.17       1.0  T
   8   -318.9769648 -0.301030E-04  0.963E-03    1.18       1.0  T
   9   -318.9769695 -0.467366E-05  0.518E-03    1.17       1.3  T
  10   -318.9769706 -0.110816E-05  0.249E-03    1.17       2.8  T
  11   -318.9769709 -0.287180E-06  0.112E-03    1.17       6.1  T
  12   -318.9769710 -0.675417E-07  0.507E-04    1.17      13.5  T
  13   -318.9769710 -0.122085E-07  0.274E-04    1.17      25.0  T

   *** convergence criteria satisfied after 13 iterations ***

         #    Occupation            Energy/Eh            Energy/eV
      -------------------------------------------------------------
         1        2.0000           -0.7371695             -20.0594
       ...           ...                  ...                  ...
       275        1.9982           -0.3486972              -9.4885
       276        1.9965           -0.3454151              -9.3992
       277        1.9957           -0.3445095              -9.3746
       278        1.9932           -0.3423331              -9.3154
       279        1.9864           -0.3389877              -9.2243
       280        1.9851           -0.3385504              -9.2124
       281        1.9774           -0.3365618              -9.1583 (HOMO)
       282        0.0203           -0.2935516              -7.9879 (LUMO)
       283        0.0200           -0.2934856              -7.9862
       284        0.0152           -0.2921685              -7.9503
       285        0.0100           -0.2901511              -7.8954
       286        0.0010           -0.2790472              -7.5933
       ...           ...                  ...                  ...
       516                          0.6347332              17.2720
      -------------------------------------------------------------
                  HL-Gap            0.0430102 Eh            1.1704 eV
             Fermi-level           -0.3153178 Eh           -8.5802 eV

 SCC (total)                   0 d,  0 h,  0 min,  1.329 sec
 SCC setup                      ...        0 min,  0.008 sec (  0.615%)
 Dispersion                     ...        0 min,  0.015 sec (  1.136%)
 classical contributions        ...        0 min,  0.002 sec (  0.114%)
 integral evaluation            ...        0 min,  0.058 sec (  4.363%)
 iterations                     ...        0 min,  1.074 sec ( 80.847%)
 molecular gradient             ...        0 min,  0.167 sec ( 12.593%)
 printout                       ...        0 min,  0.004 sec (  0.327%)

         :::::::::::::::::::::::::::::::::::::::::::::::::::::
         ::                     SUMMARY                     ::
         :::::::::::::::::::::::::::::::::::::::::::::::::::::
         :: total energy            -315.001587421869 Eh    ::
         :: total w/o Gsasa/hb      -314.960888406712 Eh    ::
         :: gradient norm              0.267034022214 Eh/a0 ::
         :: HOMO-LUMO gap              1.170367252331 eV    ::
         ::.................................................::
         :: SCC energy              -318.965591849408 Eh    ::
         :: -> isotropic ES            0.851965734351 Eh    ::
         :: -> anisotropic ES         -0.007642089738 Eh    ::
         :: -> anisotropic XC          0.142364817266 Eh    ::
         :: -> dispersion             -0.230187410132 Eh    ::
         :: -> Gsolv                  -0.272490043217 Eh    ::
         ::    -> Gelec               -0.231791028060 Eh    ::
         ::    -> Gsasa               -0.000447990426 Eh    ::
         ::    -> Ghb                 -0.041331784429 Eh    ::
         ::    -> Gshift               0.001080759698 Eh    ::
         :: repulsion energy           3.964004427538 Eh    ::
         :: add. restraining           0.000000000000 Eh    ::
         :: total charge               1.000000000000 e     ::
         :::::::::::::::::::::::::::::::::::::::::::::::::::::

           -------------------------------------------------
          |                Property Printout                |
           -------------------------------------------------

    * Orbital Energies and Occupations

         #    Occupation            Energy/Eh            Energy/eV
      -------------------------------------------------------------
         1        2.0000           -0.7371695             -20.0594
       ...           ...                  ...                  ...
       269        2.0000           -0.3930775             -10.6962
       270        2.0000           -0.3884629             -10.5706
       271        2.0000           -0.3877622             -10.5515
       272        2.0000           -0.3846488             -10.4668
       273        2.0000           -0.3704380             -10.0801
       274        2.0000           -0.3704017             -10.0791
       275        1.9982           -0.3486972              -9.4885
       276        1.9965           -0.3454151              -9.3992
       277        1.9957           -0.3445095              -9.3746
       278        1.9932           -0.3423331              -9.3154
       279        1.9864           -0.3389877              -9.2243
       280        1.9851           -0.3385504              -9.2124
       281        1.9774           -0.3365618              -9.1583 (HOMO)
       282        0.0203           -0.2935516              -7.9879 (LUMO)
       283        0.0200           -0.2934856              -7.9862
       284        0.0152           -0.2921685              -7.9503
       285        0.0100           -0.2901511              -7.8954
       286        0.0010           -0.2790472              -7.5933
       287        0.0008           -0.2783730              -7.5749
       288        0.0003           -0.2738770              -7.4526
       289                         -0.2332135              -6.3461
       290                         -0.2313129              -6.2943
       291                         -0.2283997              -6.2151
       292                         -0.2254521              -6.1349
       ...                                ...                  ...
       516                          0.6347332              17.2720
      -------------------------------------------------------------
                  HL-Gap            0.0430102 Eh            1.1704 eV
             Fermi-level           -0.3153178 Eh           -8.5802 eV

     #   Z          covCN         q      C6AA      α(0)
     1   7 N        2.633    -0.367    29.460     8.061
     2   1 H        0.860     0.177     1.230     1.738
     3   6 C        3.783     0.040    19.926     6.359
     4   1 H        0.924     0.063     2.161     2.299
     5   6 C        3.814    -0.075    21.926     6.665
     6   1 H        0.924     0.078     2.002     2.213
     7   1 H        0.925     0.051     2.305     2.374
     8   6 C        2.958    -0.001    28.055     8.688
     9   6 C        2.916    -0.046    29.154     8.854
    10   1 H        0.925     0.021     2.722     2.580
    11   6 C        2.904    -0.072    29.799     8.951
    12   1 H        0.926     0.022     2.706     2.572
    13   6 C        2.835     0.142    24.909     8.179
    14   8 O        1.660    -0.431    21.466     6.255
    15   1 H        0.806     0.343     0.605     1.222
    16   6 C        2.910    -0.063    29.560     8.915
    17   1 H        0.926     0.058     2.225     2.332
    18   6 C        2.911    -0.038    28.954     8.823
    19   1 H        0.926     0.060     2.196     2.318
    20   6 C        2.760     0.202    23.707     7.973
    21   8 O        0.856    -0.387    21.414     6.204
    22   7 N        2.632    -0.378    29.777     8.104
    23   1 H        0.860     0.159     1.344     1.816
    24   6 C        3.787     0.032    20.051     6.378
    25   1 H        0.925     0.057     2.240     2.340
    26   6 C        3.810    -0.075    21.920     6.664
    27   1 H        0.925     0.055     2.254     2.348
    28   1 H        0.924     0.050     2.325     2.384
    29   6 C        2.959     0.010    27.785     8.646
    30   6 C        2.915    -0.041    29.012     8.832
    31   1 H        0.926     0.043     2.403     2.424
    32   6 C        2.910    -0.038    28.948     8.822
    33   1 H        0.925     0.044     2.399     2.422
    34   6 C        2.917    -0.039    28.976     8.827
    35   1 H        0.926     0.038     2.473     2.459
    36   6 C        2.902    -0.037    28.914     8.817
    37   1 H        0.926     0.036     2.508     2.476
    38   6 C        2.922    -0.043    29.065     8.841
    39   1 H        0.926     0.015     2.805     2.619
    40   6 C        2.757     0.269    22.465     7.762
    41   8 O        0.860    -0.522    24.274     6.606
    42   7 N        2.691    -0.166    24.601     7.366
    43   1 H        0.860     0.212     1.047     1.603
    44   6 C        3.797     0.043    19.855     6.345
    45   1 H        0.924     0.088     1.898     2.154
    46   6 C        3.810    -0.081    22.030     6.681
    47   1 H        0.925     0.043     2.411     2.428
    48   1 H        0.925     0.063     2.168     2.303
    49   6 C        2.689     0.359    20.900     7.482
    50   8 O        0.857    -0.608    26.326     6.879
    51   8 O        0.857    -0.616    26.520     6.904
    52   6 C        2.761     0.206    23.632     7.961
    53   8 O        0.857    -0.371    21.117     6.161
    54   7 N        2.636    -0.347    28.939     7.990
    55   1 H        0.860     0.158     1.348     1.819
    56   6 C        3.784     0.028    20.113     6.388
    57   1 H        0.925     0.090     1.877     2.142
    58   6 C        3.686     0.075    19.521     6.325
    59   1 H        0.925     0.074     2.046     2.237
    60   1 H        0.925     0.053     2.288     2.366
    61   8 O        1.655    -0.477    22.403     6.389
    62   1 H        0.806     0.331     0.634     1.251
    63   6 C        2.759     0.201    23.729     7.977
    64   8 O        0.856    -0.376    21.210     6.175
    65   7 N        2.630    -0.365    29.430     8.057
    66   1 H        0.860     0.137     1.493     1.914
    67   6 C        3.784     0.034    20.018     6.373
    68   1 H        0.925     0.084     1.936     2.176
    69   6 C        3.804    -0.069    21.818     6.650
    70   1 H        0.924     0.067     2.117     2.275
    71   1 H        0.925     0.052     2.295     2.369
    72   6 C        3.803    -0.081    22.037     6.683
    73   1 H        0.925     0.058     2.228     2.334
    74   1 H        0.925     0.066     2.131     2.283
    75   6 C        3.737    -0.024    21.087     6.553
    76   1 H        0.924     0.084     1.943     2.180
    77   1 H        0.924     0.096     1.821     2.110
    78   7 N        2.687    -0.135    23.934     7.266
    79   1 H        0.860     0.233     0.952     1.528
    80   6 C        2.735     0.235    23.073     7.864
    81   7 N        2.659    -0.265    26.855     7.697
    82   1 H        0.860     0.238     0.931     1.512
    83   1 H        0.860     0.249     0.887     1.475
    84   7 N        2.663    -0.265    26.865     7.698
    85   1 H        0.860     0.228     0.974     1.546
    86   1 H        0.861     0.233     0.954     1.530
    87   6 C        2.757     0.203    23.689     7.970
    88   8 O        0.856    -0.380    21.284     6.185
    89   7 N        2.635    -0.366    29.437     8.058
    90   1 H        0.861     0.161     1.331     1.807
    91   6 C        3.789     0.032    20.045     6.376
    92   1 H        0.923     0.040     2.454     2.450
    93   6 C        3.821    -0.066    21.750     6.637
    94   1 H        0.925     0.032     2.551     2.498
    95   1 H        0.925     0.044     2.393     2.419
    96   6 C        3.809    -0.072    21.872     6.657
    97   1 H        0.924     0.054     2.265     2.354
    98   1 H        0.925     0.041     2.441     2.443
    99   6 C        3.806    -0.089    22.192     6.706
   100   1 H        0.925     0.060     2.198     2.318
   101   1 H        0.925     0.076     2.019     2.222
   102   6 C        3.736    -0.039    21.363     6.596
   103   1 H        0.924     0.115     1.656     2.012
   104   1 H        0.924     0.112     1.676     2.025
   105   7 N        3.489    -0.159    24.432     7.341
   106   1 H        0.860     0.312     0.680     1.292
   107   1 H        0.860     0.310     0.683     1.295
   108   1 H        0.860     0.313     0.677     1.289
   109   6 C        2.772     0.259    22.647     7.794
   110   8 O        0.860    -0.541    24.720     6.666
   111   7 N        2.751    -0.079    22.771     7.087
   112   6 C        3.801    -0.017    20.885     6.507
   113   1 H        0.925     0.080     1.982     2.201
   114   1 H        0.924     0.073     2.050     2.239
   115   6 C        3.837    -0.075    21.900     6.658
   116   1 H        0.925     0.057     2.234     2.337
   117   1 H        0.924     0.065     2.144     2.290
   118   6 C        3.835    -0.073    21.875     6.654
   119   1 H        0.925     0.061     2.185     2.311
   120   1 H        0.925     0.080     1.976     2.198
   121   6 C        3.857     0.024    20.126     6.380
   122   1 H        0.925     0.058     2.223     2.332
   123   6 C        2.748     0.276    22.324     7.737
   124   8 O        0.859    -0.499    23.756     6.535
   125   7 N        2.693    -0.172    24.728     7.386
   126   1 H        0.860     0.210     1.056     1.610
   127   6 C        3.788     0.034    20.017     6.372
   128   1 H        0.924     0.098     1.802     2.099
   129   6 C        3.812    -0.070    21.824     6.650
   130   1 H        0.924     0.069     2.101     2.267
   131   1 H        0.924     0.076     2.026     2.226
   132   6 C        2.958     0.011    27.769     8.643
   133   6 C        2.921    -0.045    29.112     8.848
   134   1 H        0.926     0.032     2.554     2.499
   135   6 C        2.908    -0.039    28.977     8.827
   136   1 H        0.925     0.032     2.561     2.502
   137   6 C        2.912    -0.039    28.965     8.825
   138   1 H        0.926     0.033     2.547     2.496
   139   6 C        2.910    -0.035    28.874     8.811
   140   1 H        0.925     0.048     2.339     2.392
   141   6 C        2.917    -0.040    28.988     8.829
   142   1 H        0.926     0.058     2.217     2.329
   143   6 C        2.757     0.204    23.660     7.965
   144   8 O        0.857    -0.377    21.232     6.178
   145   7 N        2.643    -0.371    29.583     8.078
   146   1 H        0.860     0.174     1.248     1.750
   147   6 C        3.786     0.044    19.853     6.346
   148   1 H        0.925     0.055     2.255     2.348
   149   6 C        3.813    -0.072    21.863     6.655
   150   1 H        0.925     0.054     2.273     2.358
   151   1 H        0.924     0.083     1.946     2.182
   152   6 C        3.064     0.042    27.005     8.521
   153   7 N        1.931    -0.330    29.410     8.041
   154   6 C        3.020     0.075    26.309     8.414
   155   1 H        0.926     0.053     2.281     2.362
   156   7 N        2.790    -0.100    23.194     7.153
   157   1 H        0.861     0.225     0.985     1.555
   158   6 C        3.022    -0.029    28.689     8.786
   159   1 H        0.925     0.037     2.484     2.465
   160   6 C        2.764     0.206    23.634     7.962
   161   8 O        0.856    -0.387    21.429     6.206
   162   7 N        2.629    -0.380    29.832     8.112
   163   1 H        0.860     0.165     1.305     1.789
   164   6 C        3.795     0.025    20.163     6.394
   165   1 H        0.924     0.048     2.346     2.395
   166   6 C        3.856    -0.027    21.022     6.521
   167   1 H        0.924     0.049     2.334     2.389
   168   6 C        3.758    -0.109    22.630     6.782
   169   1 H        0.924     0.040     2.451     2.448
   170   1 H        0.924     0.042     2.424     2.435
   171   1 H        0.924     0.045     2.383     2.414
   172   6 C        3.811    -0.055    21.545     6.607
   173   1 H        0.925     0.031     2.573     2.509
   174   1 H        0.924     0.020     2.730     2.584
   175   6 C        3.751    -0.105    22.563     6.774
   176   1 H        0.925     0.034     2.524     2.484
   177   1 H        0.924     0.030     2.590     2.517
   178   1 H        0.926     0.047     2.358     2.401
   179   6 C        2.749     0.269    22.461     7.760
   180   8 O        0.863    -0.533    24.517     6.639
   181   7 N        2.697    -0.154    24.322     7.325
   182   1 H        0.860     0.217     1.024     1.585
   183   6 C        3.799     0.032    20.044     6.375
   184   1 H        0.926     0.085     1.932     2.173
   185   6 C        3.864    -0.020    20.886     6.499
   186   1 H        0.925     0.067     2.124     2.279
   187   6 C        3.758    -0.128    23.016     6.840
   188   1 H        0.925     0.062     2.170     2.304
   189   1 H        0.924     0.045     2.387     2.416
   190   1 H        0.925     0.051     2.309     2.376
   191   6 C        3.814    -0.061    21.659     6.624
   192   1 H        0.925     0.023     2.683     2.562
   193   1 H        0.924     0.040     2.449     2.447
   194   6 C        3.749    -0.108    22.632     6.785
   195   1 H        0.925     0.044     2.397     2.421
   196   1 H        0.924     0.047     2.356     2.400
   197   1 H        0.924     0.025     2.659     2.550
   198   6 C        2.769     0.208    23.581     7.953
   199   8 O        0.856    -0.362    20.942     6.135
   200   1 H        0.860     0.183     1.196     1.713
   201   1 H        0.923     0.041     2.442     2.444
   202   1 H        0.860     0.189     1.162     1.688
   203   1 H        0.923     0.069     2.096     2.264
   204   1 H        0.860     0.148     1.412     1.861
   205   1 H        0.923     0.048     2.349     2.397
   206   1 H        0.860     0.175     1.245     1.748
   207   1 H        0.923     0.045     2.388     2.417
   208   1 H        0.860     0.181     1.207     1.721
   209   1 H        0.923     0.074     2.047     2.238
   210   1 H        0.860     0.182     1.201     1.717
   211   1 H        0.923     0.055     2.257     2.349
   212   1 H        0.860     0.189     1.164     1.690
   213   1 H        0.923     0.063     2.162     2.299

 Mol. C6AA /au·bohr⁶  :     421029.868486
 Mol. C8AA /au·bohr⁸  :    9440632.607786
 Mol. α(0) /au        :        984.921662


Wiberg/Mayer (AO) data.
largest (>0.10) Wiberg bond orders for each atom

 ---------------------------------------------------------------------------
     #   Z sym  total        # sym  WBO       # sym  WBO       # sym  WBO
 ---------------------------------------------------------------------------
     1   7 N    3.024 --     3 C    1.037   200 H    0.952     2 H    0.941
     2   1 H    0.969 --     1 N    0.941
     3   6 C    3.988 --     1 N    1.037    20 C    0.996     4 H    0.949
                             5 C    0.913
     4   1 H    0.995 --     3 C    0.949
     5   6 C    3.988 --     8 C    1.019     7 H    0.971     6 H    0.959
                             3 C    0.913
     6   1 H    0.993 --     5 C    0.959
     7   1 H    0.997 --     5 C    0.971
     8   6 C    3.987 --    18 C    1.408     9 C    1.398     5 C    1.019
     9   6 C    3.988 --    11 C    1.454     8 C    1.398    10 H    0.970
                            16 C    0.108
    10   1 H    1.000 --     9 C    0.970
    11   6 C    3.987 --     9 C    1.454    13 C    1.362    12 H    0.969
                            18 C    0.104
    12   1 H    0.999 --    11 C    0.969
    13   6 C    3.937 --    16 C    1.363    11 C    1.362    14 O    1.082
    14   8 O    2.096 --    13 C    1.082    15 H    0.842
    15   1 H    0.882 --    14 O    0.842
    16   6 C    3.984 --    18 C    1.450    13 C    1.363    17 H    0.966
                             9 C    0.108
    17   1 H    0.996 --    16 C    0.966
    18   6 C    3.988 --    16 C    1.450     8 C    1.408    19 H    0.967
                            11 C    0.104
    19   1 H    0.996 --    18 C    0.967
    20   6 C    3.892 --    21 O    1.861     3 C    0.996   201 H    0.939
    21   8 O    2.042 --    20 C    1.861
    22   7 N    3.019 --    24 C    1.030    23 H    0.949   202 H    0.948
    23   1 H    0.975 --    22 N    0.949
    24   6 C    3.985 --    22 N    1.030    25 H    0.954    26 C    0.949
                            40 C    0.941
    25   1 H    0.996 --    24 C    0.954
    26   6 C    3.991 --    29 C    1.015    27 H    0.970    28 H    0.958
                            24 C    0.949
    27   1 H    0.996 --    26 C    0.970
    28   1 H    0.997 --    26 C    0.958
    29   6 C    3.988 --    38 C    1.414    30 C    1.408    26 C    1.015
                            34 C    0.105
    30   6 C    3.990 --    32 C    1.446    29 C    1.408    31 H    0.968
                            36 C    0.112
    31   1 H    0.998 --    30 C    0.968
    32   6 C    3.990 --    30 C    1.446    34 C    1.431    33 H    0.971
                            38 C    0.114
    33   1 H    0.998 --    32 C    0.971
    34   6 C    3.987 --    36 C    1.445    32 C    1.431    35 H    0.971
                            29 C    0.105
    35   1 H    0.998 --    34 C    0.971
    36   6 C    3.990 --    34 C    1.445    38 C    1.433    37 H    0.971
                            30 C    0.112
    37   1 H    0.998 --    36 C    0.971
    38   6 C    3.989 --    36 C    1.433    29 C    1.414    39 H    0.967
                            32 C    0.114
    39   1 H    1.000 --    38 C    0.967
    40   6 C    3.939 --    41 O    1.620    42 N    1.299    24 C    0.941
    41   8 O    1.923 --    40 C    1.620    42 N    0.191
    42   7 N    3.469 --    40 C    1.299    44 C    0.986    43 H    0.908
                            41 O    0.191
    43   1 H    0.955 --    42 N    0.908
    44   6 C    3.969 --    52 C    0.995    42 N    0.986    46 C    0.943
                            45 H    0.941
    45   1 H    0.992 --    44 C    0.941
    46   6 C    3.983 --    47 H    0.975    48 H    0.949    49 C    0.945
                            44 C    0.943
    47   1 H    0.998 --    46 C    0.975
    48   1 H    0.996 --    46 C    0.949
    49   6 C    3.940 --    50 O    1.486    51 O    1.472    46 C    0.945
    50   8 O    1.844 --    49 C    1.486    51 O    0.210
    51   8 O    1.830 --    49 C    1.472    50 O    0.210
    52   6 C    3.874 --    53 O    1.879    44 C    0.995   203 H    0.936
    53   8 O    2.037 --    52 C    1.879
    54   7 N    3.039 --    56 C    1.030   204 H    0.963    55 H    0.953
    55   1 H    0.975 --    54 N    0.953
    56   6 C    3.984 --    54 N    1.030    63 C    0.981    58 C    0.950
                            57 H    0.930
    57   1 H    0.991 --    56 C    0.930
    58   6 C    3.951 --    61 O    0.995    60 H    0.973    59 H    0.962
                            56 C    0.950
    59   1 H    0.995 --    58 C    0.962
    60   1 H    0.997 --    58 C    0.973
    61   8 O    1.950 --    58 C    0.995    62 H    0.879
    62   1 H    0.890 --    61 O    0.879
    63   6 C    3.890 --    64 O    1.880    56 C    0.981   205 H    0.938
    64   8 O    2.042 --    63 C    1.880
    65   7 N    3.030 --    67 C    1.027    66 H    0.965   206 H    0.954
    66   1 H    0.981 --    65 N    0.965
    67   6 C    3.981 --    65 N    1.027    87 C    0.981    69 C    0.957
                            68 H    0.933
    68   1 H    0.993 --    67 C    0.933
    69   6 C    3.988 --    72 C    1.005    71 H    0.975    70 H    0.970
                            67 C    0.957
    70   1 H    0.995 --    69 C    0.970
    71   1 H    0.997 --    69 C    0.975
    72   6 C    3.990 --    69 C    1.005    75 C    0.997    74 H    0.972
                            73 H    0.970
    73   1 H    0.997 --    72 C    0.970
    74   1 H    0.995 --    72 C    0.972
    75   6 C    3.949 --    72 C    0.997    78 N    0.983    77 H    0.964
                            76 H    0.961
    76   1 H    0.992 --    75 C    0.961
    77   1 H    0.990 --    75 C    0.964
    78   7 N    3.450 --    80 C    1.299    75 C    0.983    79 H    0.914
                            81 N    0.103
    79   1 H    0.945 --    78 N    0.914
    80   6 C    3.973 --    81 N    1.340    84 N    1.304    78 N    1.299
    81   7 N    3.409 --    80 C    1.340    82 H    0.921    83 H    0.869
                            84 N    0.104    78 N    0.103
    82   1 H    0.943 --    81 N    0.921
    83   1 H    0.938 --    81 N    0.869
    84   7 N    3.382 --    80 C    1.304    85 H    0.925    86 H    0.889
                            81 N    0.104
    85   1 H    0.948 --    84 N    0.925
    86   1 H    0.946 --    84 N    0.889
    87   6 C    3.886 --    88 O    1.878    67 C    0.981   207 H    0.938
    88   8 O    2.035 --    87 C    1.878
    89   7 N    3.003 --    91 C    1.025    90 H    0.952   208 H    0.949
    90   1 H    0.974 --    89 N    0.952
    91   6 C    3.984 --    89 N    1.025    93 C    0.958    92 H    0.954
                           109 C    0.949
    92   1 H    0.998 --    91 C    0.954
    93   6 C    3.988 --    96 C    1.003    95 H    0.974    94 H    0.969
                            91 C    0.958
    94   1 H    0.999 --    93 C    0.969
    95   1 H    0.998 --    93 C    0.974
    96   6 C    3.991 --    99 C    1.008    93 C    1.003    98 H    0.973
                            97 H    0.972
    97   1 H    0.997 --    96 C    0.972
    98   1 H    0.998 --    96 C    0.973
    99   6 C    3.987 --    96 C    1.008   102 C    1.004   100 H    0.975
                           101 H    0.969
   100   1 H    0.996 --    99 C    0.975
   101   1 H    0.994 --    99 C    0.969
   102   6 C    3.926 --    99 C    1.004   105 N    0.973   104 H    0.968
                           103 H    0.962
   103   1 H    0.987 --   102 C    0.962
   104   1 H    0.987 --   102 C    0.968
   105   7 N    3.646 --   102 C    0.973   107 H    0.887   106 H    0.884
                           108 H    0.884
   106   1 H    0.903 --   105 N    0.884
   107   1 H    0.904 --   105 N    0.887
   108   1 H    0.902 --   105 N    0.884
   109   6 C    3.940 --   110 O    1.582   111 N    1.306    91 C    0.949
   110   8 O    1.900 --   109 C    1.582   111 N    0.183
   111   7 N    3.521 --   109 C    1.306   112 C    0.974   121 C    0.969
                           110 O    0.183
   112   6 C    3.962 --   115 C    1.002   111 N    0.974   113 H    0.967
                           114 H    0.965
   113   1 H    0.994 --   112 C    0.967
   114   1 H    0.994 --   112 C    0.965
   115   6 C    3.991 --   118 C    1.003   112 C    1.002   116 H    0.980
                           117 H    0.976
   116   1 H    0.997 --   115 C    0.980
   117   1 H    0.995 --   115 C    0.976
   118   6 C    3.985 --   115 C    1.003   121 C    0.976   119 H    0.975
                           120 H    0.971
   119   1 H    0.996 --   118 C    0.975
   120   1 H    0.993 --   118 C    0.971
   121   6 C    3.970 --   118 C    0.976   111 N    0.969   122 H    0.953
                           123 C    0.941
   122   1 H    0.997 --   121 C    0.953
   123   6 C    3.946 --   124 O    1.630   125 N    1.297   121 C    0.941
   124   8 O    1.940 --   123 C    1.630   125 N    0.194
   125   7 N    3.464 --   123 C    1.297   127 C    0.974   126 H    0.921
                           124 O    0.194
   126   1 H    0.956 --   125 N    0.921
   127   6 C    3.965 --   143 C    0.992   125 N    0.974   129 C    0.945
                           128 H    0.937
   128   1 H    0.990 --   127 C    0.937
   129   6 C    3.981 --   132 C    1.006   131 H    0.968   130 H    0.964
                           127 C    0.945
   130   1 H    0.995 --   129 C    0.964
   131   1 H    0.994 --   129 C    0.968
   132   6 C    3.986 --   133 C    1.416   141 C    1.411   129 C    1.006
                           137 C    0.109
   133   6 C    3.990 --   135 C    1.441   132 C    1.416   134 H    0.970
                           139 C    0.112
   134   1 H    0.999 --   133 C    0.970
   135   6 C    3.990 --   133 C    1.441   137 C    1.438   136 H    0.972
                           141 C    0.112
   136   1 H    0.999 --   135 C    0.972
   137   6 C    3.990 --   139 C    1.438   135 C    1.438   138 H    0.972
                           132 C    0.109
   138   1 H    0.998 --   137 C    0.972
   139   6 C    3.989 --   141 C    1.443   137 C    1.438   140 H    0.969
                           133 C    0.112
   140   1 H    0.997 --   139 C    0.969
   141   6 C    3.989 --   139 C    1.443   132 C    1.411   142 H    0.967
                           135 C    0.112
   142   1 H    0.997 --   141 C    0.967
   143   6 C    3.873 --   144 O    1.878   127 C    0.992   209 H    0.936
   144   8 O    2.031 --   143 C    1.878
   145   7 N    3.017 --   147 C    1.011   210 H    0.951   146 H    0.935
   146   1 H    0.970 --   145 N    0.935
   147   6 C    3.986 --   145 N    1.011   160 C    0.990   148 H    0.965
                           149 C    0.937
   148   1 H    0.996 --   147 C    0.965
   149   6 C    3.988 --   152 C    1.010   151 H    0.963   150 H    0.954
                           147 C    0.937
   150   1 H    0.997 --   149 C    0.954
   151   1 H    0.993 --   149 C    0.963
   152   6 C    3.974 --   158 C    1.564   153 N    1.270   149 C    1.010
   153   7 N    2.986 --   154 C    1.523   152 C    1.270   156 N    0.104
   154   6 C    3.958 --   153 N    1.523   156 N    1.296   155 H    0.964
                           158 C    0.119
   155   1 H    0.997 --   154 C    0.964
   156   7 N    3.595 --   154 C    1.296   158 C    1.203   157 H    0.921
                           153 N    0.104
   157   1 H    0.949 --   156 N    0.921
   158   6 C    3.937 --   152 C    1.564   156 N    1.203   159 H    0.963
                           154 C    0.119
   159   1 H    0.999 --   158 C    0.963
   160   6 C    3.866 --   161 O    1.857   147 C    0.990   211 H    0.940
   161   8 O    2.034 --   160 C    1.857
   162   7 N    3.016 --   164 C    1.023   163 H    0.949   212 H    0.949
   163   1 H    0.973 --   162 N    0.949
   164   6 C    3.982 --   162 N    1.023   165 H    0.960   166 C    0.951
                           179 C    0.947
   165   1 H    0.997 --   164 C    0.960
   166   6 C    3.992 --   168 C    1.007   172 C    0.998   167 H    0.964
                           164 C    0.951
   167   1 H    0.997 --   166 C    0.964
   168   6 C    3.993 --   166 C    1.007   171 H    0.984   170 H    0.981
                           169 H    0.970
   169   1 H    0.998 --   168 C    0.970
   170   1 H    0.998 --   168 C    0.981
   171   1 H    0.998 --   168 C    0.984
   172   6 C    3.996 --   175 C    1.013   166 C    0.998   173 H    0.977
                           174 H    0.974
   173   1 H    0.999 --   172 C    0.977
   174   1 H    1.000 --   172 C    0.974
   175   6 C    3.994 --   172 C    1.013   177 H    0.987   176 H    0.987
                           178 H    0.985
   176   1 H    0.999 --   175 C    0.987
   177   1 H    0.999 --   175 C    0.987
   178   1 H    0.998 --   175 C    0.985
   179   6 C    3.938 --   180 O    1.607   181 N    1.301   164 C    0.947
   180   8 O    1.907 --   179 C    1.607   181 N    0.189
   181   7 N    3.485 --   179 C    1.301   183 C    0.974   182 H    0.905
                           180 O    0.189
   182   1 H    0.953 --   181 N    0.905
   183   6 C    3.964 --   181 N    0.974   198 C    0.962   184 H    0.959
                           185 C    0.958
   184   1 H    0.992 --   183 C    0.959
   185   6 C    3.986 --   187 C    1.004   191 C    0.993   183 C    0.958
                           186 H    0.954
   186   1 H    0.996 --   185 C    0.954
   187   6 C    3.984 --   185 C    1.004   190 H    0.986   189 H    0.981
                           188 H    0.979
   188   1 H    0.995 --   187 C    0.979
   189   1 H    0.998 --   187 C    0.981
   190   1 H    0.997 --   187 C    0.986
   191   6 C    3.991 --   194 C    1.017   185 C    0.993   193 H    0.974
                           192 H    0.974
   192   1 H    0.999 --   191 C    0.974
   193   1 H    0.998 --   191 C    0.974
   194   6 C    3.992 --   191 C    1.017   196 H    0.987   197 H    0.986
                           195 H    0.978
   195   1 H    0.998 --   194 C    0.978
   196   1 H    0.998 --   194 C    0.987
   197   1 H    0.999 --   194 C    0.986
   198   6 C    3.873 --   199 O    1.892   183 C    0.962   213 H    0.938
   199   8 O    2.058 --   198 C    1.892
   200   1 H    0.966 --     1 N    0.952
   201   1 H    0.998 --    20 C    0.939
   202   1 H    0.964 --    22 N    0.948
   203   1 H    0.995 --    52 C    0.936
   204   1 H    0.978 --    54 N    0.963
   205   1 H    0.998 --    63 C    0.938
   206   1 H    0.970 --    65 N    0.954
   207   1 H    0.998 --    87 C    0.938
   208   1 H    0.967 --    89 N    0.949
   209   1 H    0.994 --   143 C    0.936
   210   1 H    0.967 --   145 N    0.951
   211   1 H    0.997 --   160 C    0.940
   212   1 H    0.964 --   162 N    0.949
   213   1 H    0.996 --   198 C    0.938
 ---------------------------------------------------------------------------

Topologies differ in total number of bonds
Writing topology from bond orders to xtbtopo.mol

molecular dipole:
                 x           y           z       tot (Debye)
 q only:       28.003      71.164     104.613
   full:       27.145      70.200     104.355     327.037
molecular quadrupole (traceless):
                xx          xy          yy          xz          yz          zz
 q only:    -7063.202    2808.453   -1205.458    4374.996   11210.337    8268.660
  q+dip:    -7034.421    2732.408   -1265.345    4224.977   11048.084    8299.766
   full:    -7033.333    2731.462   -1264.632    4226.715   11044.158    8297.964


           -------------------------------------------------
          | TOTAL ENERGY             -315.001587421869 Eh   |
          | GRADIENT NORM               0.267034022214 Eh/α |
          | HOMO-LUMO GAP               1.170367252331 eV   |
           -------------------------------------------------

------------------------------------------------------------------------
 * finished run on 2026/01/05 at 09:07:50.475     
------------------------------------------------------------------------
 total:
 * wall-time:     0 d,  0 h,  0 min,  1.392 sec
 *  cpu-time:     0 d,  0 h,  0 min, 20.147 sec
 * ratio c/w:    14.472 speedup
 SCF:
 * wall-time:     0 d,  0 h,  0 min,  1.331 sec
Note: The following floating-point exceptions are signalling: IEEE_UNDERFLOW_FLAG IEEE_DENORMAL
normal termination of xtb
 *  cpu-time:     0 d,  0 h,  0 min, 19.244 sec
 * ratio c/w:    14.455 speedup

