      -----------------------------------------------------------      
     |                   =====================                   |     
     |                           x T B                           |     
     |                   =====================                   |     
     |                         S. Grimme                         |     
     |          Mulliken Center for Theoretical Chemistry        |     
     |                    University of Bonn                     |     
      -----------------------------------------------------------      

   * xtb version 6.7.1 (edcfbbe) compiled by 'conda@c0858423619e' on 2025-09-04

   xtb is free software: you can redistribute it and/or modify it under
   the terms of the GNU Lesser General Public License as published by
   the Free Software Foundation, either version 3 of the License, or
   (at your option) any later version.
   
   xtb is distributed in the hope that it will be useful,
   but WITHOUT ANY WARRANTY; without even the implied warranty of
   MERCHANTABILITY or FITNESS FOR A PARTICULAR PURPOSE.  See the
   GNU Lesser General Public License for more details.
   
   Cite this work as:
   * C. Bannwarth, E. Caldeweyher, S. Ehlert, A. Hansen, P. Pracht,
     J. Seibert, S. Spicher, S. Grimme, WIREs Comput. Mol. Sci., 2020, 11,
     e01493. DOI: 10.1002/wcms.1493
   
   for GFN2-xTB:
   * C. Bannwarth, S. Ehlert and S. Grimme., J. Chem. Theory Comput., 2019,
     15, 1652-1671. DOI: 10.1021/acs.jctc.8b01176
   for GFN1-xTB:
   * S. Grimme, C. Bannwarth, P. Shushkov, J. Chem. Theory Comput., 2017,
     13, 1989-2009. DOI: 10.1021/acs.jctc.7b00118
   for GFN0-xTB:
   * P. Pracht, E. Caldeweyher, S. Ehlert, S. Grimme, ChemRxiv, 2019, preprint.
     DOI: 10.26434/chemrxiv.8326202.v1
   for GFN-FF:
   * S. Spicher and S. Grimme, Angew. Chem. Int. Ed., 2020, 59, 15665-15673.
     DOI: 10.1002/anie.202004239
   
   for ALPB and GBSA implicit solvation:
   * S. Ehlert, M. Stahn, S. Spicher, S. Grimme, J. Chem. Theory Comput.,
     2021, 17, 4250-4261. DOI: 10.1021/acs.jctc.1c00471
   
   for ddCOSMO and CPCM-X implicit solvation:
   * M. Stahn, S. Ehlert, S. Grimme, J. Phys. Chem. A,
     2023, XX, XXXX-XXXX. DOI: 10.1021/acs.jpca.3c04382
   
   for DFT-D4:
   * E. Caldeweyher, C. Bannwarth and S. Grimme, J. Chem. Phys., 2017,
     147, 034112. DOI: 10.1063/1.4993215
   * E. Caldeweyher, S. Ehlert, A. Hansen, H. Neugebauer, S. Spicher,
     C. Bannwarth and S. Grimme, J. Chem. Phys., 2019, 150, 154122.
     DOI: 10.1063/1.5090222
   * E. Caldeweyher, J.-M. Mewes, S. Ehlert and S. Grimme, Phys. Chem. Chem. Phys.
     2020, 22, 8499-8512. DOI: 10.1039/D0CP00502A
   
   for sTDA-xTB:
   * S. Grimme and C. Bannwarth, J. Chem. Phys., 2016, 145, 054103.
     DOI: 10.1063/1.4959605
   
   in the mass-spec context:
   * V. Asgeirsson, C. Bauer and S. Grimme, Chem. Sci., 2017, 8, 4879.
     DOI: 10.1039/c7sc00601b
   * J. Koopman and S. Grimme, ACS Omega 2019, 4, 12, 15120-15133.
     DOI: 10.1021/acsomega.9b02011
   
   for metadynamics refer to:
   * S. Grimme, J. Chem. Theory Comput., 2019, 155, 2847-2862
     DOI: 10.1021/acs.jctc.9b00143
   
   for SPH calculations refer to:
   * S. Spicher and S. Grimme, J. Chem. Theory Comput., 2021, 17, 1701-1714
     DOI: 10.1021/acs.jctc.0c01306
   
   for ONIOM refer to:
   * C. Plett, A. Katbashev, S. Ehlert, S. Grimme, M. Bursch,
     Phys. Chem. Chem. Phys., 2023, 25, 17860-17868. DOI: 10.1039/D3CP02178E
   
   for DIPRO refer to:
   * J. Kohn, N. Gildemeister, S. Grimme, D. Fazzi, A. Hansen,
     J. Chem. Phys., 2023, just accepted.
   
   for PTB refer to:
   * S. Grimme, M. Mueller, A. Hansen, J. Chem. Phys., 2023, 158, 124111.
     DOI: 10.1063/5.0137838
   
   with help from (in alphabetical order)
   P. Atkinson, C. Bannwarth, F. Bohle, G. Brandenburg, E. Caldeweyher
   M. Checinski, S. Dohm, S. Ehlert, S. Ehrlich, I. Gerasimov, C. Hölzer
   A. Katbashev, J. Kohn, J. Koopman, C. Lavigne, S. Lehtola, F. März, M. Müller,
   F. Musil, H. Neugebauer, J. Pisarek, C. Plett, P. Pracht, F. Pultar,
   J. Seibert, P. Shushkov, S. Spicher, M. Stahn, M. Steiner, T. Strunk,
   J. Stückrath, T. Rose, and J. Unsleber
   
 * started run on 2026/01/05 at 09:06:55.091     
   ID    Z sym.   atoms
    1    7 N      1, 21, 33, 53, 68, 84, 103, 124, 132, 135, 141, 160
    2    1 H      2, 4, 6, 7, 10, 12, 14, 16, 18, 22, 24, 26, 27, 34, 36, 38,
                  39, 42, 44, 46, 48, 50, 54, 56, 58, 59, 61, 62, 69, 71, 73,
                  75-77, 79-81, 85, 87, 89, 91-93, 95, 96, 98-100, 104, 106,
                  108, 109, 112, 114, 117, 119, 121, 125, 127, 129, 130, 134,
                  136, 138, 142, 144, 146, 148-150, 152, 153, 155-157, 161,
                  163, 165, 167-169, 171, 172, 174-176, 179-190
    3    6 C      3, 5, 8, 9, 11, 13, 15, 17, 19, 23, 25, 28, 31, 35, 37, 40,
                  41, 43, 45, 47, 49, 51, 55, 57, 60, 63, 66, 70, 72, 74, 78,
                  82, 86, 88, 90, 94, 97, 101, 105, 107, 110, 111, 113, 115,
                  118, 120, 122, 126, 128, 131, 133, 137, 139, 143, 145, 147,
                  151, 154, 158, 162, 164, 166, 170, 173, 177
    4    8 O      20, 29, 30, 32, 52, 64, 65, 67, 83, 102, 116, 123, 140,
                  159, 178

           -------------------------------------------------
          |                Calculation Setup                |
           -------------------------------------------------

          program call               : xtb /home/antonio_mesquita/Documentos/gmx_ISA_project/testes_arquivos_primeiros/gmx_ISA_testes/testes_qm_xtb/QM_analysis/QM_FRAMES_CAPPED/frame_2400ps/residues_pocket_capped_2400ps.xyz --gfn 2 --alpb water --chrg -2 --etemp 1500 --cycles 1000
          coordinate file            : /home/antonio_mesquita/Documentos/gmx_ISA_project/testes_arquivos_primeiros/gmx_ISA_testes/testes_qm_xtb/QM_analysis/QM_FRAMES_CAPPED/frame_2400ps/residues_pocket_capped_2400ps.xyz
          omp threads                :                    16


molecular fragmentation (1/2 indicates fragments):
111111111111111111111111111111112222222222222222222222222222222222222222
222222222222222222222222222222222222222222222222222222222222222222222222
2222222222222222222222222222222222112222222222
# atoms in fragment 1/2:    34   156
 fragment masses (1/2) :      263.27     1024.28
CMA distance (Bohr)    :  13.960
constraining FC (au)   :  0.0500

           -------------------------------------------------
          |                 G F N 2 - x T B                 |
           -------------------------------------------------

        Reference                      10.1021/acs.jctc.8b01176
      * Hamiltonian:
        H0-scaling (s, p, d)           1.850000    2.230000    2.230000
        zeta-weighting                 0.500000
      * Dispersion:
        s8                             2.700000
        a1                             0.520000
        a2                             5.000000
        s9                             5.000000
      * Repulsion:
        kExp                           1.500000    1.000000
        rExp                           1.000000
      * Coulomb:
        alpha                          2.000000
        third order                    shell-resolved
        anisotropic                    true
        a3                             3.000000
        a5                             4.000000
        cn-shift                       1.200000
        cn-exp                         4.000000
        max-rad                        5.000000

      * Solvation model:               ALPB
        Solvent                        water
        Parameter file                 internal GFN2-xTB/ALPB
        Dielectric constant                8.0200E+01
        Reference state                gsolv [1 M gas/solution]
        Free energy shift                  1.0808E-03 Eh       6.7819E-01 kcal/mol
        Temperature                        2.9815E+02 K
        Density                            1.0000E+00 kg/L
        Solvent mass                       1.8000E+01 g/mol
        Interaction kernel             P16
        Born radius scaling (c1)           1.4744E+00
        Born radii integrator          GBOBC
        Born offset                        0.0000E+00 a0       0.0000E+00 AA
        H-bond correction              true
        Ion screening                  false
        Surface tension                    1.0000E-05 Eh       1.5569E+01 dyn/cm
        Grid points                               230 per atom

          ...................................................
          :                      SETUP                      :
          :.................................................:
          :  # basis functions                 466          :
          :  # atomic orbitals                 466          :
          :  # shells                          282          :
          :  # electrons                       510          :
          :  max. iterations                   250          :
          :  Hamiltonian                  GFN2-xTB          :
          :  restarted?                      false          :
          :  GBSA solvation                   true          :
          :  PC potential                    false          :
          :  electronic temp.         1500.0000000     K    :
          :  accuracy                    1.0000000          :
          :  -> integral cutoff          0.2500000E+02      :
          :  -> integral neglect         0.1000000E-07      :
          :  -> SCF convergence          0.1000000E-05 Eh   :
          :  -> wf. convergence          0.1000000E-03 e    :
          :  Broyden damping             0.4000000          :
          :  net charge                         -2          :
          :  unpaired electrons                  0          :
          ...................................................

 iter      E             dE          RMSdq      gap      omega  full diag
   1   -288.5685589 -0.288569E+03  0.434E+00    1.79       0.0  T
   2   -289.1716978 -0.603139E+00  0.222E+00    1.04       1.0  T
   3   -289.1925140 -0.208162E-01  0.122E+00    1.58       1.0  T
   4   -289.2236644 -0.311504E-01  0.269E-01    1.00       1.0  T
   5   -289.2303071 -0.664269E-02  0.110E-01    1.22       1.0  T
   6   -289.2306019 -0.294794E-03  0.587E-02    1.16       1.0  T
   7   -289.2307349 -0.133008E-03  0.223E-02    1.17       1.0  T
   8   -289.2307530 -0.180924E-04  0.834E-03    1.18       1.0  T
   9   -289.2307556 -0.260270E-05  0.408E-03    1.17       1.8  T
  10   -289.2307561 -0.571705E-06  0.188E-03    1.17       3.9  T
  11   -289.2307563 -0.124780E-06  0.869E-04    1.17       8.4  T
  12   -289.2307563 -0.335044E-07  0.405E-04    1.17      17.9  T

   *** convergence criteria satisfied after 12 iterations ***

         #    Occupation            Energy/Eh            Energy/eV
      -------------------------------------------------------------
         1        2.0000           -0.7367294             -20.0474
       ...           ...                  ...                  ...
       249        1.9999           -0.3601508              -9.8002
       250        1.9971           -0.3455078              -9.4017
       251        1.9964           -0.3443863              -9.3712
       252        1.9946           -0.3425062              -9.3201
       253        1.9937           -0.3417402              -9.2992
       254        1.9913           -0.3402182              -9.2578
       255        1.9775           -0.3356755              -9.1342 (HOMO)
       256        0.0199           -0.2925531              -7.9608 (LUMO)
       257        0.0148           -0.2911187              -7.9217
       258        0.0080           -0.2881696              -7.8415
       259        0.0042           -0.2851353              -7.7589
       260        0.0018           -0.2811275              -7.6499
       ...           ...                  ...                  ...
       466                          0.6369911              17.3334
      -------------------------------------------------------------
                  HL-Gap            0.0431223 Eh            1.1734 eV
             Fermi-level           -0.3144033 Eh           -8.5554 eV

 SCC (total)                   0 d,  0 h,  0 min,  0.887 sec
 SCC setup                      ...        0 min,  0.008 sec (  0.883%)
 Dispersion                     ...        0 min,  0.014 sec (  1.606%)
 classical contributions        ...        0 min,  0.001 sec (  0.115%)
 integral evaluation            ...        0 min,  0.042 sec (  4.704%)
 iterations                     ...        0 min,  0.675 sec ( 76.033%)
 molecular gradient             ...        0 min,  0.145 sec ( 16.382%)
 printout                       ...        0 min,  0.002 sec (  0.274%)

         :::::::::::::::::::::::::::::::::::::::::::::::::::::
         ::                     SUMMARY                     ::
         :::::::::::::::::::::::::::::::::::::::::::::::::::::
         :: total energy            -285.646856638243 Eh    ::
         :: total w/o Gsasa/hb      -285.626924561473 Eh    ::
         :: gradient norm              0.256664485276 Eh/a0 ::
         :: HOMO-LUMO gap              1.173418316191 eV    ::
         ::.................................................::
         :: SCC energy              -289.224485077604 Eh    ::
         :: -> isotropic ES            1.000484783496 Eh    ::
         :: -> anisotropic ES          0.040838829303 Eh    ::
         :: -> anisotropic XC          0.122363972371 Eh    ::
         :: -> dispersion             -0.196758393034 Eh    ::
         :: -> Gsolv                  -0.348941775246 Eh    ::
         ::    -> Gelec               -0.329009698476 Eh    ::
         ::    -> Gsasa                0.012175369046 Eh    ::
         ::    -> Ghb                 -0.033188205514 Eh    ::
         ::    -> Gshift               0.001080759698 Eh    ::
         :: repulsion energy           3.577628439362 Eh    ::
         :: add. restraining           0.000000000000 Eh    ::
         :: total charge              -2.000000000000 e     ::
         :::::::::::::::::::::::::::::::::::::::::::::::::::::

           -------------------------------------------------
          |                Property Printout                |
           -------------------------------------------------

    * Orbital Energies and Occupations

         #    Occupation            Energy/Eh            Energy/eV
      -------------------------------------------------------------
         1        2.0000           -0.7367294             -20.0474
       ...           ...                  ...                  ...
       243        2.0000           -0.3814623             -10.3801
       244        2.0000           -0.3788754             -10.3097
       245        2.0000           -0.3752216             -10.2103
       246        2.0000           -0.3721163             -10.1258
       247        2.0000           -0.3653883              -9.9427
       248        1.9999           -0.3632158              -9.8836
       249        1.9999           -0.3601508              -9.8002
       250        1.9971           -0.3455078              -9.4017
       251        1.9964           -0.3443863              -9.3712
       252        1.9946           -0.3425062              -9.3201
       253        1.9937           -0.3417402              -9.2992
       254        1.9913           -0.3402182              -9.2578
       255        1.9775           -0.3356755              -9.1342 (HOMO)
       256        0.0199           -0.2925531              -7.9608 (LUMO)
       257        0.0148           -0.2911187              -7.9217
       258        0.0080           -0.2881696              -7.8415
       259        0.0042           -0.2851353              -7.7589
       260        0.0018           -0.2811275              -7.6499
       261        0.0009           -0.2780060              -7.5649
       262                         -0.2260891              -6.1522
       263                         -0.2258235              -6.1450
       264                         -0.2257604              -6.1433
       265                         -0.2240647              -6.0971
       266                         -0.2223777              -6.0512
       ...                                ...                  ...
       466                          0.6369911              17.3334
      -------------------------------------------------------------
                  HL-Gap            0.0431223 Eh            1.1734 eV
             Fermi-level           -0.3144033 Eh           -8.5554 eV

     #   Z          covCN         q      C6AA      α(0)
     1   7 N        2.639    -0.377    29.753     8.101
     2   1 H        0.860     0.149     1.407     1.858
     3   6 C        3.790     0.033    20.038     6.375
     4   1 H        0.925     0.060     2.201     2.320
     5   6 C        3.819    -0.066    21.753     6.638
     6   1 H        0.925     0.061     2.191     2.315
     7   1 H        0.924     0.039     2.457     2.451
     8   6 C        2.962     0.012    27.735     8.638
     9   6 C        2.911    -0.040    29.005     8.831
    10   1 H        0.926     0.051     2.310     2.377
    11   6 C        2.914    -0.041    29.011     8.832
    12   1 H        0.926     0.046     2.366     2.405
    13   6 C        2.908    -0.042    29.053     8.838
    14   1 H        0.927     0.046     2.375     2.410
    15   6 C        2.911    -0.033    28.824     8.804
    16   1 H        0.926     0.025     2.660     2.550
    17   6 C        2.916    -0.037    28.927     8.820
    18   1 H        0.926     0.010     2.882     2.655
    19   6 C        2.750     0.276    22.329     7.738
    20   8 O        0.858    -0.525    24.343     6.615
    21   7 N        2.691    -0.162    24.502     7.352
    22   1 H        0.860     0.221     1.005     1.570
    23   6 C        3.793     0.045    19.827     6.341
    24   1 H        0.925     0.077     2.009     2.216
    25   6 C        3.820    -0.081    22.023     6.679
    26   1 H        0.925     0.037     2.488     2.467
    27   1 H        0.925     0.057     2.236     2.339
    28   6 C        2.689     0.364    20.819     7.467
    29   8 O        0.856    -0.642    27.173     6.989
    30   8 O        0.857    -0.655    27.522     7.034
    31   6 C        2.768     0.210    23.554     7.948
    32   8 O        0.856    -0.365    20.996     6.143
    33   7 N        2.633    -0.370    29.550     8.073
    34   1 H        0.860     0.169     1.279     1.772
    35   6 C        3.785     0.042    19.881     6.351
    36   1 H        0.924     0.071     2.072     2.251
    37   6 C        3.815    -0.077    21.966     6.671
    38   1 H        0.925     0.054     2.267     2.355
    39   1 H        0.925     0.068     2.105     2.269
    40   6 C        2.961     0.006    27.894     8.663
    41   6 C        2.918    -0.042    29.050     8.838
    42   1 H        0.926     0.035     2.521     2.483
    43   6 C        2.909    -0.037    28.917     8.818
    44   1 H        0.926     0.039     2.461     2.453
    45   6 C        2.913    -0.038    28.944     8.822
    46   1 H        0.926     0.026     2.637     2.539
    47   6 C        2.905    -0.040    28.995     8.829
    48   1 H        0.926     0.039     2.460     2.453
    49   6 C        2.915    -0.047    29.160     8.855
    50   1 H        0.926     0.042     2.416     2.431
    51   6 C        2.760     0.215    23.450     7.930
    52   8 O        0.856    -0.375    21.181     6.170
    53   7 N        2.630    -0.376    29.717     8.096
    54   1 H        0.860     0.163     1.316     1.797
    55   6 C        3.792     0.023    20.194     6.400
    56   1 H        0.924     0.052     2.290     2.367
    57   6 C        3.807    -0.044    21.357     6.579
    58   1 H        0.924     0.020     2.728     2.583
    59   1 H        0.925     0.041     2.436     2.441
    60   6 C        3.801    -0.090    22.221     6.711
    61   1 H        0.925     0.048     2.343     2.394
    62   1 H        0.924     0.031     2.576     2.510
    63   6 C        2.689     0.364    20.821     7.468
    64   8 O        0.857    -0.677    28.078     7.104
    65   8 O        0.857    -0.662    27.694     7.056
    66   6 C        2.757     0.268    22.479     7.764
    67   8 O        0.859    -0.529    24.445     6.629
    68   7 N        2.702    -0.171    24.708     7.383
    69   1 H        0.860     0.216     1.028     1.588
    70   6 C        3.817     0.014    20.331     6.417
    71   1 H        0.924     0.072     2.061     2.245
    72   6 C        3.856    -0.017    20.842     6.493
    73   1 H        0.924     0.044     2.402     2.424
    74   6 C        3.766    -0.110    22.640     6.782
    75   1 H        0.924     0.030     2.581     2.512
    76   1 H        0.925     0.052     2.290     2.366
    77   1 H        0.925     0.041     2.438     2.442
    78   6 C        3.751    -0.123    22.923     6.828
    79   1 H        0.924     0.051     2.309     2.376
    80   1 H        0.924     0.050     2.321     2.382
    81   1 H        0.925     0.069     2.096     2.264
    82   6 C        2.764     0.273    22.378     7.747
    83   8 O        0.858    -0.507    23.936     6.559
    84   7 N        2.691    -0.157    24.401     7.336
    85   1 H        0.860     0.222     1.001     1.567
    86   6 C        3.805     0.024    20.165     6.393
    87   1 H        0.924     0.088     1.900     2.156
    88   6 C        3.857    -0.023    20.938     6.508
    89   1 H        0.924     0.065     2.139     2.287
    90   6 C        3.768    -0.128    22.998     6.835
    91   1 H        0.924     0.070     2.087     2.259
    92   1 H        0.924     0.047     2.359     2.402
    93   1 H        0.925     0.051     2.312     2.378
    94   6 C        3.812    -0.062    21.678     6.627
    95   1 H        0.924     0.029     2.604     2.523
    96   1 H        0.924     0.039     2.458     2.452
    97   6 C        3.749    -0.115    22.776     6.807
    98   1 H        0.925     0.050     2.322     2.383
    99   1 H        0.924     0.052     2.297     2.370
   100   1 H        0.924     0.044     2.397     2.421
   101   6 C        2.758     0.210    23.550     7.947
   102   8 O        0.856    -0.372    21.126     6.162
   103   7 N        2.636    -0.368    29.484     8.064
   104   1 H        0.860     0.173     1.257     1.757
   105   6 C        3.784     0.042    19.877     6.351
   106   1 H        0.924     0.077     2.009     2.216
   107   6 C        3.815    -0.069    21.809     6.647
   108   1 H        0.925     0.059     2.207     2.323
   109   1 H        0.925     0.048     2.349     2.397
   110   6 C        2.965     0.007    27.869     8.659
   111   6 C        2.907    -0.044    29.103     8.846
   112   1 H        0.926     0.055     2.257     2.349
   113   6 C        2.912    -0.071    29.780     8.948
   114   1 H        0.925     0.044     2.402     2.424
   115   6 C        2.829     0.142    24.908     8.178
   116   8 O        1.660    -0.456    21.957     6.326
   117   1 H        0.806     0.357     0.573     1.189
   118   6 C        2.913    -0.059    29.478     8.903
   119   1 H        0.925     0.040     2.442     2.444
   120   6 C        2.913    -0.045    29.108     8.847
   121   1 H        0.926     0.052     2.300     2.372
   122   6 C        2.765     0.196    23.825     7.994
   123   8 O        0.856    -0.411    21.908     6.275
   124   7 N        2.632    -0.361    29.297     8.039
   125   1 H        0.860     0.165     1.302     1.788
   126   6 C        3.786     0.043    19.866     6.349
   127   1 H        0.924     0.050     2.320     2.382
   128   6 C        3.812    -0.071    21.843     6.652
   129   1 H        0.924     0.040     2.442     2.444
   130   1 H        0.924     0.062     2.171     2.304
   131   6 C        3.092     0.040    27.003     8.517
   132   7 N        1.927    -0.322    29.179     8.009
   133   6 C        3.022     0.081    26.170     8.391
   134   1 H        0.926     0.054     2.275     2.359
   135   7 N        2.809    -0.104    23.285     7.167
   136   1 H        0.860     0.218     1.020     1.582
   137   6 C        3.007    -0.032    28.774     8.799
   138   1 H        0.926     0.037     2.491     2.468
   139   6 C        2.758     0.208    23.591     7.954
   140   8 O        0.857    -0.353    20.767     6.110
   141   7 N        2.633    -0.380    29.816     8.110
   142   1 H        0.860     0.156     1.364     1.830
   143   6 C        3.787     0.034    20.020     6.373
   144   1 H        0.925     0.043     2.411     2.428
   145   6 C        3.852    -0.022    20.931     6.507
   146   1 H        0.925     0.048     2.349     2.397
   147   6 C        3.757    -0.109    22.635     6.783
   148   1 H        0.924     0.035     2.512     2.479
   149   1 H        0.924     0.030     2.582     2.513
   150   1 H        0.925     0.059     2.213     2.326
   151   6 C        3.806    -0.059    21.627     6.620
   152   1 H        0.925     0.028     2.620     2.531
   153   1 H        0.924     0.031     2.568     2.506
   154   6 C        3.749    -0.106    22.592     6.779
   155   1 H        0.924     0.032     2.562     2.503
   156   1 H        0.925     0.034     2.524     2.484
   157   1 H        0.924     0.037     2.488     2.467
   158   6 C        2.753     0.272    22.394     7.749
   159   8 O        0.861    -0.522    24.269     6.605
   160   7 N        2.694    -0.172    24.716     7.384
   161   1 H        0.860     0.226     0.981     1.551
   162   6 C        3.801     0.028    20.103     6.384
   163   1 H        0.925     0.072     2.068     2.249
   164   6 C        3.856    -0.019    20.883     6.499
   165   1 H        0.925     0.054     2.268     2.355
   166   6 C        3.763    -0.123    22.911     6.823
   167   1 H        0.924     0.061     2.190     2.314
   168   1 H        0.924     0.040     2.444     2.445
   169   1 H        0.925     0.055     2.264     2.353
   170   6 C        3.804    -0.055    21.564     6.611
   171   1 H        0.925     0.033     2.546     2.495
   172   1 H        0.925     0.046     2.366     2.406
   173   6 C        3.752    -0.106    22.577     6.776
   174   1 H        0.925     0.029     2.604     2.523
   175   1 H        0.925     0.042     2.425     2.435
   176   1 H        0.925     0.034     2.527     2.486
   177   6 C        2.764     0.204    23.672     7.968
   178   8 O        0.858    -0.366    21.010     6.145
   179   1 H        0.860     0.190     1.159     1.687
   180   1 H        0.923     0.057     2.239     2.340
   181   1 H        0.860     0.183     1.195     1.713
   182   1 H        0.923     0.038     2.471     2.458
   183   1 H        0.860     0.177     1.230     1.737
   184   1 H        0.923     0.071     2.073     2.252
   185   1 H        0.860     0.172     1.259     1.758
   186   1 H        0.923     0.064     2.152     2.294
   187   1 H        0.860     0.194     1.139     1.672
   188   1 H        0.923     0.068     2.106     2.269
   189   1 H        0.860     0.176     1.237     1.742
   190   1 H        0.923     0.079     1.995     2.209

 Mol. C6AA /au·bohr⁶  :     351886.969954
 Mol. C8AA /au·bohr⁸  :    7921212.469169
 Mol. α(0) /au        :        900.806303


Wiberg/Mayer (AO) data.
largest (>0.10) Wiberg bond orders for each atom

 ---------------------------------------------------------------------------
     #   Z sym  total        # sym  WBO       # sym  WBO       # sym  WBO
 ---------------------------------------------------------------------------
     1   7 N    3.005 --     3 C    1.023     2 H    0.954   179 H    0.948
     2   1 H    0.978 --     1 N    0.954
     3   6 C    3.983 --     1 N    1.023     4 H    0.953     5 C    0.945
                            19 C    0.944
     4   1 H    0.995 --     3 C    0.953
     5   6 C    3.991 --     8 C    1.013     6 H    0.971     7 H    0.962
                             3 C    0.945
     6   1 H    0.996 --     5 C    0.971
     7   1 H    0.998 --     5 C    0.962
     8   6 C    3.986 --    17 C    1.412     9 C    1.404     5 C    1.013
                            13 C    0.108
     9   6 C    3.989 --    11 C    1.446     8 C    1.404    10 H    0.968
                            15 C    0.112
    10   1 H    0.997 --     9 C    0.968
    11   6 C    3.990 --     9 C    1.446    13 C    1.436    12 H    0.971
                            17 C    0.110
    12   1 H    0.998 --    11 C    0.971
    13   6 C    3.990 --    15 C    1.438    11 C    1.436    14 H    0.972
                             8 C    0.108
    14   1 H    0.997 --    13 C    0.972
    15   6 C    3.991 --    17 C    1.440    13 C    1.438    16 H    0.973
                             9 C    0.112
    16   1 H    0.999 --    15 C    0.973
    17   6 C    3.992 --    15 C    1.440     8 C    1.412    18 H    0.970
                            11 C    0.110
    18   1 H    1.000 --    17 C    0.970
    19   6 C    3.937 --    20 O    1.616    21 N    1.303     3 C    0.944
    20   8 O    1.921 --    19 C    1.616    21 N    0.188
    21   7 N    3.467 --    19 C    1.303    23 C    0.985    22 H    0.903
                            20 O    0.188
    22   1 H    0.951 --    21 N    0.903
    23   6 C    3.976 --    31 C    0.993    21 N    0.985    24 H    0.944
                            25 C    0.944
    24   1 H    0.994 --    23 C    0.944
    25   6 C    3.980 --    26 H    0.973    27 H    0.953    23 C    0.944
                            28 C    0.932
    26   1 H    0.999 --    25 C    0.973
    27   1 H    0.997 --    25 C    0.953
    28   6 C    3.938 --    29 O    1.500    30 O    1.485    25 C    0.932
    29   8 O    1.796 --    28 C    1.500    30 O    0.221
    30   8 O    1.776 --    28 C    1.485    29 O    0.221
    31   6 C    3.883 --    32 O    1.873    23 C    0.993   180 H    0.940
    32   8 O    2.045 --    31 C    1.873
    33   7 N    3.017 --    35 C    1.028    34 H    0.956   181 H    0.953
    34   1 H    0.971 --    33 N    0.956
    35   6 C    3.988 --    33 N    1.028    51 C    0.982    36 H    0.949
                            37 C    0.937
    36   1 H    0.995 --    35 C    0.949
    37   6 C    3.985 --    40 C    1.006    38 H    0.967    39 H    0.965
                            35 C    0.937
    38   1 H    0.997 --    37 C    0.967
    39   1 H    0.995 --    37 C    0.965
    40   6 C    3.987 --    41 C    1.416    49 C    1.410    37 C    1.006
                            45 C    0.108
    41   6 C    3.990 --    43 C    1.438    40 C    1.416    42 H    0.968
                            47 C    0.112
    42   1 H    0.999 --    41 C    0.968
    43   6 C    3.990 --    45 C    1.438    41 C    1.438    44 H    0.971
                            49 C    0.112
    44   1 H    0.998 --    43 C    0.971
    45   6 C    3.989 --    43 C    1.438    47 C    1.437    46 H    0.973
                            40 C    0.108
    46   1 H    0.999 --    45 C    0.973
    47   6 C    3.990 --    49 C    1.442    45 C    1.437    48 H    0.972
                            41 C    0.112
    48   1 H    0.998 --    47 C    0.972
    49   6 C    3.990 --    47 C    1.442    40 C    1.410    50 H    0.971
                            43 C    0.112
    50   1 H    0.998 --    49 C    0.971
    51   6 C    3.885 --    52 O    1.893    35 C    0.982   182 H    0.937
    52   8 O    2.051 --    51 C    1.893
    53   7 N    3.027 --    55 C    1.024    54 H    0.957   183 H    0.954
    54   1 H    0.973 --    53 N    0.957
    55   6 C    3.983 --    53 N    1.024    57 C    0.974    56 H    0.950
                            66 C    0.937
    56   1 H    0.997 --    55 C    0.950
    57   6 C    3.990 --    60 C    1.009    55 C    0.974    58 H    0.970
                            59 H    0.970
    58   1 H    1.000 --    57 C    0.970
    59   1 H    0.998 --    57 C    0.970
    60   6 C    3.993 --    57 C    1.009    62 H    0.968    61 H    0.959
                            63 C    0.948
    61   1 H    0.998 --    60 C    0.959
    62   1 H    0.999 --    60 C    0.968
    63   6 C    3.932 --    65 O    1.489    64 O    1.471    60 C    0.948
    64   8 O    1.751 --    63 C    1.471    65 O    0.211
    65   8 O    1.772 --    63 C    1.489    64 O    0.211
    66   6 C    3.942 --    67 O    1.610    68 N    1.309    55 C    0.937
    67   8 O    1.918 --    66 C    1.610    68 N    0.192
    68   7 N    3.464 --    66 C    1.309    70 C    0.982    69 H    0.900
                            67 O    0.192
    69   1 H    0.953 --    68 N    0.900
    70   6 C    3.965 --    68 N    0.982    72 C    0.959    82 C    0.947
                            71 H    0.941
    71   1 H    0.995 --    70 C    0.941
    72   6 C    3.990 --    78 C    1.008    74 C    1.003    73 H    0.964
                            70 C    0.959
    73   1 H    0.998 --    72 C    0.964
    74   6 C    3.992 --    72 C    1.003    76 H    0.986    75 H    0.985
                            77 H    0.982
    75   1 H    0.999 --    74 C    0.985
    76   1 H    0.997 --    74 C    0.986
    77   1 H    0.998 --    74 C    0.982
    78   6 C    3.991 --    72 C    1.008    79 H    0.985    80 H    0.984
                            81 H    0.983
    79   1 H    0.997 --    78 C    0.985
    80   1 H    0.997 --    78 C    0.984
    81   1 H    0.995 --    78 C    0.983
    82   6 C    3.950 --    83 O    1.623    84 N    1.304    70 C    0.947
    83   8 O    1.949 --    82 C    1.623    84 N    0.192
    84   7 N    3.469 --    82 C    1.304    86 C    0.986    85 H    0.899
                            83 O    0.192
    85   1 H    0.951 --    84 N    0.899
    86   6 C    3.968 --   101 C    0.988    84 N    0.986    88 C    0.944
                            87 H    0.932
    87   1 H    0.992 --    86 C    0.932
    88   6 C    3.984 --    90 C    1.003    94 C    0.997    89 H    0.964
                            86 C    0.944
    89   1 H    0.995 --    88 C    0.964
    90   6 C    3.991 --    88 C    1.003    92 H    0.983    93 H    0.981
                            91 H    0.979
    91   1 H    0.994 --    90 C    0.979
    92   1 H    0.998 --    90 C    0.983
    93   1 H    0.997 --    90 C    0.981
    94   6 C    3.994 --    97 C    1.017    88 C    0.997    95 H    0.976
                            96 H    0.962
    95   1 H    0.999 --    94 C    0.976
    96   1 H    0.998 --    94 C    0.962
    97   6 C    3.992 --    94 C    1.017   100 H    0.986    99 H    0.985
                            98 H    0.985
    98   1 H    0.997 --    97 C    0.985
    99   1 H    0.997 --    97 C    0.985
   100   1 H    0.998 --    97 C    0.986
   101   6 C    3.889 --   102 O    1.891    86 C    0.988   184 H    0.934
   102   8 O    2.055 --   101 C    1.891
   103   7 N    3.028 --   105 C    1.031   185 H    0.957   104 H    0.953
   104   1 H    0.970 --   103 N    0.953
   105   6 C    3.984 --   103 N    1.031   122 C    0.982   107 C    0.942
                           106 H    0.937
   106   1 H    0.994 --   105 C    0.937
   107   6 C    3.989 --   110 C    1.007   109 H    0.973   108 H    0.968
                           105 C    0.942
   108   1 H    0.996 --   107 C    0.968
   109   1 H    0.997 --   107 C    0.973
   110   6 C    3.986 --   120 C    1.412   111 C    1.400   107 C    1.007
   111   6 C    3.987 --   113 C    1.459   110 C    1.400   112 H    0.968
                           118 C    0.107
   112   1 H    0.997 --   111 C    0.968
   113   6 C    3.985 --   111 C    1.459   115 C    1.360   114 H    0.966
                           120 C    0.106
   114   1 H    0.998 --   113 C    0.966
   115   6 C    3.930 --   118 C    1.372   113 C    1.360   116 O    1.066
   116   8 O    2.071 --   115 C    1.066   117 H    0.851
   117   1 H    0.872 --   116 O    0.851
   118   6 C    3.987 --   120 C    1.443   115 C    1.372   119 H    0.970
                           111 C    0.107
   119   1 H    0.998 --   118 C    0.970
   120   6 C    3.985 --   118 C    1.443   110 C    1.412   121 H    0.967
                           113 C    0.106
   121   1 H    0.997 --   120 C    0.967
   122   6 C    3.870 --   123 O    1.864   105 C    0.982   186 H    0.936
   123   8 O    2.012 --   122 C    1.864
   124   7 N    3.003 --   126 C    1.012   187 H    0.944   125 H    0.942
   125   1 H    0.973 --   124 N    0.942
   126   6 C    3.985 --   124 N    1.012   139 C    0.983   127 H    0.963
                           128 C    0.944
   127   1 H    0.996 --   126 C    0.963
   128   6 C    3.988 --   131 C    1.011   129 H    0.971   130 H    0.961
                           126 C    0.944
   129   1 H    0.998 --   128 C    0.971
   130   1 H    0.996 --   128 C    0.961
   131   6 C    3.973 --   137 C    1.568   132 N    1.264   128 C    1.011
   132   7 N    2.991 --   133 C    1.528   131 C    1.264   135 N    0.106
   133   6 C    3.954 --   132 N    1.528   135 N    1.288   134 H    0.963
                           137 C    0.117
   134   1 H    0.997 --   133 C    0.963
   135   7 N    3.593 --   133 C    1.288   137 C    1.207   136 H    0.923
                           132 N    0.106
   136   1 H    0.952 --   135 N    0.923
   137   6 C    3.941 --   131 C    1.568   135 N    1.207   138 H    0.968
                           133 C    0.117
   138   1 H    0.999 --   137 C    0.968
   139   6 C    3.874 --   140 O    1.892   126 C    0.983   188 H    0.938
   140   8 O    2.067 --   139 C    1.892
   141   7 N    2.999 --   143 C    1.016   142 H    0.957   189 H    0.952
   142   1 H    0.976 --   141 N    0.957
   143   6 C    3.982 --   141 N    1.016   145 C    0.960   158 C    0.950
                           144 H    0.948
   144   1 H    0.996 --   143 C    0.948
   145   6 C    3.992 --   147 C    1.006   151 C    0.994   146 H    0.963
                           143 C    0.960
   146   1 H    0.997 --   145 C    0.963
   147   6 C    3.993 --   145 C    1.006   148 H    0.986   149 H    0.984
                           150 H    0.981
   148   1 H    0.999 --   147 C    0.986
   149   1 H    0.999 --   147 C    0.984
   150   1 H    0.996 --   147 C    0.981
   151   6 C    3.994 --   154 C    1.017   145 C    0.994   153 H    0.976
                           152 H    0.974
   152   1 H    0.999 --   151 C    0.974
   153   1 H    0.999 --   151 C    0.976
   154   6 C    3.996 --   151 C    1.017   157 H    0.989   156 H    0.988
                           155 H    0.985
   155   1 H    0.999 --   154 C    0.985
   156   1 H    0.999 --   154 C    0.988
   157   1 H    0.999 --   154 C    0.989
   158   6 C    3.943 --   159 O    1.612   160 N    1.305   143 C    0.950
   159   8 O    1.922 --   158 C    1.612   160 N    0.192
   160   7 N    3.478 --   158 C    1.305   162 C    0.964   161 H    0.892
                           159 O    0.192
   161   1 H    0.949 --   160 N    0.892
   162   6 C    3.961 --   177 C    0.971   160 N    0.964   163 H    0.959
                           164 C    0.957
   163   1 H    0.995 --   162 C    0.959
   164   6 C    3.987 --   166 C    1.004   170 C    0.995   165 H    0.960
                           162 C    0.957
   165   1 H    0.997 --   164 C    0.960
   166   6 C    3.992 --   164 C    1.004   169 H    0.984   168 H    0.981
                           167 H    0.980
   167   1 H    0.996 --   166 C    0.980
   168   1 H    0.998 --   166 C    0.981
   169   1 H    0.997 --   166 C    0.984
   170   6 C    3.996 --   173 C    1.017   164 C    0.995   172 H    0.976
                           171 H    0.973
   171   1 H    0.999 --   170 C    0.973
   172   1 H    0.998 --   170 C    0.976
   173   6 C    3.991 --   170 C    1.017   174 H    0.985   175 H    0.984
                           176 H    0.977
   174   1 H    0.999 --   173 C    0.985
   175   1 H    0.998 --   173 C    0.984
   176   1 H    0.998 --   173 C    0.977
   177   6 C    3.864 --   178 O    1.882   162 C    0.971   190 H    0.936
   178   8 O    2.048 --   177 C    1.882
   179   1 H    0.964 --     1 N    0.948
   180   1 H    0.996 --    31 C    0.940
   181   1 H    0.966 --    33 N    0.953
   182   1 H    0.998 --    51 C    0.937
   183   1 H    0.968 --    53 N    0.954
   184   1 H    0.995 --   101 C    0.934
   185   1 H    0.970 --   103 N    0.957
   186   1 H    0.996 --   122 C    0.936
   187   1 H    0.962 --   124 N    0.944
   188   1 H    0.995 --   139 C    0.938
   189   1 H    0.969 --   141 N    0.952
   190   1 H    0.993 --   177 C    0.936
 ---------------------------------------------------------------------------

Topologies differ in total number of bonds
Writing topology from bond orders to xtbtopo.mol

molecular dipole:
                 x           y           z       tot (Debye)
 q only:      -90.176     -78.095    -209.087
   full:      -90.120     -78.515    -208.835     611.597
molecular quadrupole (traceless):
                xx          xy          yy          xz          yz          zz
Note: The following floating-point exceptions are signalling: IEEE_UNDERFLOW_FLAG IEEE_DENORMAL
normal termination of xtb
 q only:     8407.537   -5576.326    9668.679  -14299.987  -12443.119  -18076.216
  q+dip:     8395.365   -5580.405    9625.801  -14277.241  -12498.699  -18021.166
   full:     8396.655   -5580.434    9628.872  -14278.324  -12497.753  -18025.527


           -------------------------------------------------
          | TOTAL ENERGY             -285.646856638243 Eh   |
          | GRADIENT NORM               0.256664485276 Eh/α |
          | HOMO-LUMO GAP               1.173418316191 eV   |
           -------------------------------------------------

------------------------------------------------------------------------
 * finished run on 2026/01/05 at 09:06:56.027     
------------------------------------------------------------------------
 total:
 * wall-time:     0 d,  0 h,  0 min,  0.937 sec
 *  cpu-time:     0 d,  0 h,  0 min, 13.621 sec
 * ratio c/w:    14.541 speedup
 SCF:
 * wall-time:     0 d,  0 h,  0 min,  0.890 sec
 *  cpu-time:     0 d,  0 h,  0 min, 12.910 sec
 * ratio c/w:    14.513 speedup

