      -----------------------------------------------------------      
     |                   =====================                   |     
     |                           x T B                           |     
     |                   =====================                   |     
     |                         S. Grimme                         |     
     |          Mulliken Center for Theoretical Chemistry        |     
     |                    University of Bonn                     |     
      -----------------------------------------------------------      

   * xtb version 6.7.1 (edcfbbe) compiled by 'conda@c0858423619e' on 2025-09-04

   xtb is free software: you can redistribute it and/or modify it under
   the terms of the GNU Lesser General Public License as published by
   the Free Software Foundation, either version 3 of the License, or
   (at your option) any later version.
   
   xtb is distributed in the hope that it will be useful,
   but WITHOUT ANY WARRANTY; without even the implied warranty of
   MERCHANTABILITY or FITNESS FOR A PARTICULAR PURPOSE.  See the
   GNU Lesser General Public License for more details.
   
   Cite this work as:
   * C. Bannwarth, E. Caldeweyher, S. Ehlert, A. Hansen, P. Pracht,
     J. Seibert, S. Spicher, S. Grimme, WIREs Comput. Mol. Sci., 2020, 11,
     e01493. DOI: 10.1002/wcms.1493
   
   for GFN2-xTB:
   * C. Bannwarth, S. Ehlert and S. Grimme., J. Chem. Theory Comput., 2019,
     15, 1652-1671. DOI: 10.1021/acs.jctc.8b01176
   for GFN1-xTB:
   * S. Grimme, C. Bannwarth, P. Shushkov, J. Chem. Theory Comput., 2017,
     13, 1989-2009. DOI: 10.1021/acs.jctc.7b00118
   for GFN0-xTB:
   * P. Pracht, E. Caldeweyher, S. Ehlert, S. Grimme, ChemRxiv, 2019, preprint.
     DOI: 10.26434/chemrxiv.8326202.v1
   for GFN-FF:
   * S. Spicher and S. Grimme, Angew. Chem. Int. Ed., 2020, 59, 15665-15673.
     DOI: 10.1002/anie.202004239
   
   for ALPB and GBSA implicit solvation:
   * S. Ehlert, M. Stahn, S. Spicher, S. Grimme, J. Chem. Theory Comput.,
     2021, 17, 4250-4261. DOI: 10.1021/acs.jctc.1c00471
   
   for ddCOSMO and CPCM-X implicit solvation:
   * M. Stahn, S. Ehlert, S. Grimme, J. Phys. Chem. A,
     2023, XX, XXXX-XXXX. DOI: 10.1021/acs.jpca.3c04382
   
   for DFT-D4:
   * E. Caldeweyher, C. Bannwarth and S. Grimme, J. Chem. Phys., 2017,
     147, 034112. DOI: 10.1063/1.4993215
   * E. Caldeweyher, S. Ehlert, A. Hansen, H. Neugebauer, S. Spicher,
     C. Bannwarth and S. Grimme, J. Chem. Phys., 2019, 150, 154122.
     DOI: 10.1063/1.5090222
   * E. Caldeweyher, J.-M. Mewes, S. Ehlert and S. Grimme, Phys. Chem. Chem. Phys.
     2020, 22, 8499-8512. DOI: 10.1039/D0CP00502A
   
   for sTDA-xTB:
   * S. Grimme and C. Bannwarth, J. Chem. Phys., 2016, 145, 054103.
     DOI: 10.1063/1.4959605
   
   in the mass-spec context:
   * V. Asgeirsson, C. Bauer and S. Grimme, Chem. Sci., 2017, 8, 4879.
     DOI: 10.1039/c7sc00601b
   * J. Koopman and S. Grimme, ACS Omega 2019, 4, 12, 15120-15133.
     DOI: 10.1021/acsomega.9b02011
   
   for metadynamics refer to:
   * S. Grimme, J. Chem. Theory Comput., 2019, 155, 2847-2862
     DOI: 10.1021/acs.jctc.9b00143
   
   for SPH calculations refer to:
   * S. Spicher and S. Grimme, J. Chem. Theory Comput., 2021, 17, 1701-1714
     DOI: 10.1021/acs.jctc.0c01306
   
   for ONIOM refer to:
   * C. Plett, A. Katbashev, S. Ehlert, S. Grimme, M. Bursch,
     Phys. Chem. Chem. Phys., 2023, 25, 17860-17868. DOI: 10.1039/D3CP02178E
   
   for DIPRO refer to:
   * J. Kohn, N. Gildemeister, S. Grimme, D. Fazzi, A. Hansen,
     J. Chem. Phys., 2023, just accepted.
   
   for PTB refer to:
   * S. Grimme, M. Mueller, A. Hansen, J. Chem. Phys., 2023, 158, 124111.
     DOI: 10.1063/5.0137838
   
   with help from (in alphabetical order)
   P. Atkinson, C. Bannwarth, F. Bohle, G. Brandenburg, E. Caldeweyher
   M. Checinski, S. Dohm, S. Ehlert, S. Ehrlich, I. Gerasimov, C. Hölzer
   A. Katbashev, J. Kohn, J. Koopman, C. Lavigne, S. Lehtola, F. März, M. Müller,
   F. Musil, H. Neugebauer, J. Pisarek, C. Plett, P. Pracht, F. Pultar,
   J. Seibert, P. Shushkov, S. Spicher, M. Stahn, M. Steiner, T. Strunk,
   J. Stückrath, T. Rose, and J. Unsleber
   
 * started run on 2026/01/05 at 09:06:20.688     
   ID    Z sym.   atoms
    1    6 C      1, 3-11, 14-16, 18, 20, 21, 24-29, 32, 62, 64, 67, 68, 70,
                  72, 74, 76, 78, 82, 84, 87, 90, 94, 96, 99, 102, 107, 111,
                  113, 116, 119, 122, 126, 128, 130, 134, 138, 142, 144, 146,
                  150, 153, 157, 161, 163, 166, 167, 169, 171, 174, 176, 178,
                  182, 184, 187, 189, 193, 195, 199, 201, 203, 207, 210, 214,
                  218, 220, 222, 226, 229, 233
    2    7 N      2, 22, 60, 80, 92, 104, 109, 124, 140, 159, 180, 188, 191,
                  197, 216
    3    8 O      12, 13, 17, 30, 31, 79, 88, 89, 91, 103, 108, 120, 121,
                  123, 139, 158, 172, 179, 196, 215, 234
    4   16 S      19, 23
    5    1 H      33-59, 61, 63, 65, 66, 69, 71, 73, 75, 77, 81, 83, 85, 86,
                  93, 95, 97, 98, 100, 101, 105, 106, 110, 112, 114, 115,
                  117, 118, 125, 127, 129, 131-133, 135-137, 141, 143, 145,
                  147-149, 151, 152, 154-156, 160, 162, 164, 165, 168, 170,
                  173, 175, 177, 181, 183, 185, 186, 190, 192, 194, 198, 200,
                  202, 204-206, 208, 209, 211-213, 217, 219, 221, 223-225,
                  227, 228, 230-232, 235-244

           -------------------------------------------------
          |                Calculation Setup                |
           -------------------------------------------------

          program call               : xtb /home/antonio_mesquita/Documentos/gmx_ISA_project/testes_arquivos_primeiros/gmx_ISA_testes/testes_qm_xtb/QM_analysis/QM_FRAMES_CAPPED/frame_1200ps/complex_capped_1200ps.xyz --gfn 2 --alpb water --chrg -1 --etemp 1500 --cycles 1000
          coordinate file            : /home/antonio_mesquita/Documentos/gmx_ISA_project/testes_arquivos_primeiros/gmx_ISA_testes/testes_qm_xtb/QM_analysis/QM_FRAMES_CAPPED/frame_1200ps/complex_capped_1200ps.xyz
          omp threads                :                    16


molecular fragmentation (1/2 indicates fragments):
111111111111111111111111111111111111111111111111111111111112222222222222
222222222222222222222222222222222222222222222222222222222222222222222222
222222222222222222222222222222222222222222222222222222222222222222222222
2222222222222222222222222222
# atoms in fragment 1/2:    59   185
 fragment masses (1/2) :      475.60     1266.49
CMA distance (Bohr)    :  10.160
constraining FC (au)   :  0.0500

           -------------------------------------------------
          |                 G F N 2 - x T B                 |
           -------------------------------------------------

        Reference                      10.1021/acs.jctc.8b01176
      * Hamiltonian:
        H0-scaling (s, p, d)           1.850000    2.230000    2.230000
        zeta-weighting                 0.500000
      * Dispersion:
        s8                             2.700000
        a1                             0.520000
        a2                             5.000000
        s9                             5.000000
      * Repulsion:
        kExp                           1.500000    1.000000
        rExp                           1.000000
      * Coulomb:
        alpha                          2.000000
        third order                    shell-resolved
        anisotropic                    true
        a3                             3.000000
        a5                             4.000000
        cn-shift                       1.200000
        cn-exp                         4.000000
        max-rad                        5.000000

      * Solvation model:               ALPB
        Solvent                        water
        Parameter file                 internal GFN2-xTB/ALPB
        Dielectric constant                8.0200E+01
        Reference state                gsolv [1 M gas/solution]
        Free energy shift                  1.0808E-03 Eh       6.7819E-01 kcal/mol
        Temperature                        2.9815E+02 K
        Density                            1.0000E+00 kg/L
        Solvent mass                       1.8000E+01 g/mol
        Interaction kernel             P16
        Born radius scaling (c1)           1.4744E+00
        Born radii integrator          GBOBC
        Born offset                        0.0000E+00 a0       0.0000E+00 AA
        H-bond correction              true
        Ion screening                  false
        Surface tension                    1.0000E-05 Eh       1.5569E+01 dyn/cm
        Grid points                               230 per atom

          ...................................................
          :                      SETUP                      :
          :.................................................:
          :  # basis functions                 622          :
          :  # atomic orbitals                 620          :
          :  # shells                          368          :
          :  # electrons                       672          :
          :  max. iterations                   250          :
          :  Hamiltonian                  GFN2-xTB          :
          :  restarted?                      false          :
          :  GBSA solvation                   true          :
          :  PC potential                    false          :
          :  electronic temp.         1500.0000000     K    :
          :  accuracy                    1.0000000          :
          :  -> integral cutoff          0.2500000E+02      :
          :  -> integral neglect         0.1000000E-07      :
          :  -> SCF convergence          0.1000000E-05 Eh   :
          :  -> wf. convergence          0.1000000E-03 e    :
          :  Broyden damping             0.4000000          :
          :  net charge                         -1          :
          :  unpaired electrons                  0          :
          ...................................................

 iter      E             dE          RMSdq      gap      omega  full diag
   1   -381.5692781 -0.381569E+03  0.455E+00    0.01       0.0  T
   2   -382.2803781 -0.711100E+00  0.258E+00    1.33       1.0  T
   3   -382.1252125  0.155166E+00  0.182E+00    0.24       1.0  T
   4   -382.4693225 -0.344110E+00  0.948E-01    0.24       1.0  T
   5   -382.4459206  0.234019E-01  0.801E-01    0.21       1.0  T
   6   -382.5477143 -0.101794E+00  0.446E-01    0.36       1.0  T
   7   -382.5417004  0.601391E-02  0.445E-01    0.00       1.0  T
   8   -382.5586918 -0.169914E-01  0.356E-01    0.10       1.0  T
   9   -382.5828867 -0.241949E-01  0.180E-01    0.23       1.0  T
  10   -382.5882115 -0.532475E-02  0.797E-02    0.23       1.0  T
  11   -382.5850662  0.314527E-02  0.126E-01    0.16       1.0  T
  12   -382.5888177 -0.375145E-02  0.467E-02    0.25       1.0  T
  13   -382.5892785 -0.460836E-03  0.215E-02    0.24       1.0  T
  14   -382.5893151 -0.365940E-04  0.182E-02    0.24       1.0  T
  15   -382.5893683 -0.532492E-04  0.104E-02    0.24       1.0  T
  16   -382.5893866 -0.182518E-04  0.411E-03    0.24       1.6  T
  17   -382.5893906 -0.403719E-05  0.131E-03    0.24       4.9  T
  18   -382.5893905  0.852050E-07  0.116E-03    0.24       5.5  T
  19   -382.5893908 -0.252386E-06  0.481E-04    0.24      13.3  T
  20   -382.5893907  0.531186E-07  0.653E-04    0.24       9.8  T

   *** convergence criteria satisfied after 20 iterations ***

         #    Occupation            Energy/Eh            Energy/eV
      -------------------------------------------------------------
         1        2.0000           -0.7911407             -21.5280
       ...           ...                  ...                  ...
       330        1.9649           -0.3713116             -10.1039
       331        1.9595           -0.3706260             -10.0852
       332        1.9354           -0.3683456             -10.0232
       333        1.8295           -0.3634677              -9.8905
       334        1.8052           -0.3627710              -9.8715
       335        1.7747           -0.3619990              -9.8505
       336        1.7520           -0.3614811              -9.8364 (HOMO)
       337        1.0415           -0.3525878              -9.5944 (LUMO)
       338        0.0000           -0.2967976              -8.0763
       339        0.0000           -0.2932283              -7.9791
       340        0.0000           -0.2898964              -7.8885
       341        0.0000           -0.2874966              -7.8232
       ...           ...                  ...                  ...
       620                          1.0940900              29.7717
      -------------------------------------------------------------
                  HL-Gap            0.0088933 Eh            0.2420 eV
             Fermi-level           -0.3521937 Eh           -9.5837 eV

 SCC (total)                   0 d,  0 h,  0 min,  2.633 sec
 SCC setup                      ...        0 min,  0.010 sec (  0.387%)
 Dispersion                     ...        0 min,  0.017 sec (  0.650%)
 classical contributions        ...        0 min,  0.002 sec (  0.087%)
 integral evaluation            ...        0 min,  0.073 sec (  2.755%)
 iterations                     ...        0 min,  2.300 sec ( 87.361%)
 molecular gradient             ...        0 min,  0.224 sec (  8.504%)
 printout                       ...        0 min,  0.007 sec (  0.254%)

         :::::::::::::::::::::::::::::::::::::::::::::::::::::
         ::                     SUMMARY                     ::
         :::::::::::::::::::::::::::::::::::::::::::::::::::::
         :: total energy            -377.994497782544 Eh    ::
         :: total w/o Gsasa/hb      -377.970733285739 Eh    ::
         :: gradient norm              0.289042970202 Eh/a0 ::
         :: HOMO-LUMO gap              0.241997861777 eV    ::
         ::.................................................::
         :: SCC energy              -382.571337441033 Eh    ::
         :: -> isotropic ES            1.174904640792 Eh    ::
         :: -> anisotropic ES         -0.016421064348 Eh    ::
         :: -> anisotropic XC          0.144522302431 Eh    ::
         :: -> dispersion             -0.293427863053 Eh    ::
         :: -> Gsolv                  -0.352275719454 Eh    ::
         ::    -> Gelec               -0.328511222650 Eh    ::
         ::    -> Gsasa                0.014133022343 Eh    ::
         ::    -> Ghb                 -0.038978278846 Eh    ::
         ::    -> Gshift               0.001080759698 Eh    ::
         :: repulsion energy           4.576839658489 Eh    ::
         :: add. restraining           0.000000000000 Eh    ::
         :: total charge              -0.999999999503 e     ::
         :::::::::::::::::::::::::::::::::::::::::::::::::::::

           -------------------------------------------------
          |                Property Printout                |
           -------------------------------------------------

    * Orbital Energies and Occupations

         #    Occupation            Energy/Eh            Energy/eV
      -------------------------------------------------------------
         1        2.0000           -0.7911407             -21.5280
       ...           ...                  ...                  ...
       324        1.9991           -0.3886893             -10.5768
       325        1.9947           -0.3803581             -10.3501
       326        1.9898           -0.3772661             -10.2659
       327        1.9893           -0.3770153             -10.2591
       328        1.9849           -0.3753611             -10.2141
       329        1.9811           -0.3742848             -10.1848
       330        1.9649           -0.3713116             -10.1039
       331        1.9595           -0.3706260             -10.0852
       332        1.9354           -0.3683456             -10.0232
       333        1.8295           -0.3634677              -9.8905
       334        1.8052           -0.3627710              -9.8715
       335        1.7747           -0.3619990              -9.8505
       336        1.7520           -0.3614811              -9.8364 (HOMO)
       337        1.0415           -0.3525878              -9.5944 (LUMO)
       338        0.0000           -0.2967976              -8.0763
       339        0.0000           -0.2932283              -7.9791
       340        0.0000           -0.2898964              -7.8885
       341        0.0000           -0.2874966              -7.8232
       342        0.0000           -0.2832695              -7.7082
       343                         -0.2638484              -7.1797
       344                         -0.2503612              -6.8127
       345                         -0.2495230              -6.7899
       346                         -0.2313313              -6.2948
       347                         -0.2307284              -6.2784
       ...                                ...                  ...
       620                          1.0940900              29.7717
      -------------------------------------------------------------
                  HL-Gap            0.0088933 Eh            0.2420 eV
             Fermi-level           -0.3521937 Eh           -9.5837 eV

     #   Z          covCN         q      C6AA      α(0)
     1   6 C        2.743     0.270    22.436     7.756
     2   7 N        2.692    -0.114    23.486     7.198
     3   6 C        2.867     0.028    27.384     8.578
     4   6 C        3.691     0.076    19.482     6.316
     5   6 C        3.807    -0.071    21.853     6.655
     6   6 C        2.964     0.024    27.464     8.596
     7   6 C        2.911    -0.041    29.024     8.834
     8   6 C        2.913    -0.032    28.792     8.799
     9   6 C        2.913    -0.038    28.948     8.823
    10   6 C        2.907    -0.036    28.886     8.813
    11   6 C        2.916    -0.035    28.860     8.809
    12   8 O        1.702    -0.276    18.581     5.820
    13   8 O        0.856    -0.508    23.953     6.562
    14   6 C        2.719     0.335    21.312     7.557
    15   6 C        3.746    -0.112    22.708     6.797
    16   6 C        3.809     0.011    20.384     6.427
    17   8 O        0.859    -0.451    22.724     6.391
    18   6 C        3.790    -0.035    21.206     6.558
    19  16 S        2.011    -0.180   148.688    20.523
    20   6 C        3.791    -0.030    21.116     6.544
    21   6 C        3.877     0.038    19.892     6.341
    22   7 N        2.730    -0.301    27.754     7.824
    23  16 S        3.763     1.155   102.320    17.025
    24   6 C        2.953    -0.088    30.202     9.014
    25   6 C        2.958    -0.025    28.622     8.775
    26   6 C        2.914    -0.025    28.635     8.775
    27   6 C        2.964     0.046    26.963     8.517
    28   6 C        2.910    -0.032    28.809     8.801
    29   6 C        2.936    -0.025    28.618     8.774
    30   8 O        0.860    -0.634    26.964     6.962
    31   8 O        0.860    -0.647    27.314     7.007
    32   6 C        3.752    -0.126    22.979     6.836
    33   1 H        0.860     0.229     0.970     1.543
    34   1 H        0.923     0.058     2.228     2.334
    35   1 H        0.924     0.087     1.913     2.163
    36   1 H        0.924     0.097     1.815     2.107
    37   1 H        0.924     0.098     1.800     2.098
    38   1 H        0.924     0.064     2.159     2.298
    39   1 H        0.925     0.056     2.247     2.344
    40   1 H        0.926     0.035     2.516     2.480
    41   1 H        0.926     0.015     2.813     2.623
    42   1 H        0.925     0.006     2.953     2.687
    43   1 H        0.924     0.040     2.456     2.451
    44   1 H        0.924     0.048     2.340     2.392
    45   1 H        0.924     0.042     2.427     2.436
    46   1 H        0.923     0.051     2.310     2.377
    47   1 H        0.924     0.079     1.990     2.206
    48   1 H        0.923     0.081     1.970     2.195
    49   1 H        0.924     0.113     1.673     2.023
    50   1 H        0.924     0.071     2.077     2.254
    51   1 H        0.923     0.064     2.151     2.294
    52   1 H        0.923     0.077     2.016     2.220
    53   1 H        0.924     0.034     2.531     2.488
    54   1 H        0.924     0.041     2.433     2.439
    55   1 H        0.925     0.108     1.711     2.046
    56   1 H        0.925     0.072     2.066     2.248
    57   1 H        0.923     0.041     2.440     2.443
    58   1 H        0.924     0.083     1.947     2.182
    59   1 H        0.923     0.087     1.909     2.161
    60   7 N        2.630    -0.333    28.573     7.939
    61   1 H        0.860     0.177     1.233     1.739
    62   6 C        3.787     0.031    20.072     6.381
    63   1 H        0.923     0.079     1.985     2.203
    64   6 C        3.810    -0.075    21.926     6.665
    65   1 H        0.925     0.092     1.861     2.134
    66   1 H        0.924     0.066     2.134     2.284
    67   6 C        2.961     0.009    27.812     8.650
    68   6 C        2.917    -0.043    29.068     8.841
    69   1 H        0.925     0.058     2.227     2.333
    70   6 C        2.916    -0.037    28.914     8.818
    71   1 H        0.926     0.048     2.345     2.395
    72   6 C        2.905    -0.041    29.021     8.833
    73   1 H        0.926     0.038     2.473     2.459
    74   6 C        2.919    -0.035    28.869     8.811
    75   1 H        0.926     0.011     2.866     2.647
    76   6 C        2.911    -0.041    29.019     8.833
    77   1 H        0.926     0.017     2.776     2.606
    78   6 C        2.749     0.267    22.486     7.765
    79   8 O        0.860    -0.508    23.966     6.564
    80   7 N        2.687    -0.156    24.383     7.334
    81   1 H        0.860     0.218     1.016     1.579
    82   6 C        3.790     0.041    19.890     6.352
    83   1 H        0.924     0.093     1.855     2.130
    84   6 C        3.810    -0.078    21.974     6.673
    85   1 H        0.925     0.045     2.385     2.415
    86   1 H        0.924     0.061     2.188     2.313
    87   6 C        2.687     0.363    20.840     7.471
    88   8 O        0.857    -0.658    27.587     7.042
    89   8 O        0.857    -0.641    27.149     6.986
    90   6 C        2.766     0.214    23.481     7.936
    91   8 O        0.856    -0.364    20.976     6.140
    92   7 N        2.633    -0.369    29.514     8.068
    93   1 H        0.860     0.185     1.185     1.705
    94   6 C        3.788     0.031    20.061     6.379
    95   1 H        0.924     0.071     2.074     2.252
    96   6 C        3.804    -0.061    21.661     6.626
    97   1 H        0.923     0.050     2.323     2.384
    98   1 H        0.925     0.058     2.224     2.332
    99   6 C        3.805    -0.101    22.419     6.741
   100   1 H        0.924     0.090     1.880     2.144
   101   1 H        0.925     0.077     2.012     2.218
   102   6 C        2.742     0.285    22.176     7.711
   103   8 O        0.863    -0.542    24.736     6.668
   104   7 N        2.640    -0.304    27.830     7.835
   105   1 H        0.860     0.248     0.892     1.480
   106   1 H        0.860     0.246     0.899     1.485
   107   6 C        2.746     0.266    22.517     7.770
   108   8 O        0.860    -0.522    24.265     6.604
   109   7 N        2.693    -0.176    24.817     7.399
   110   1 H        0.860     0.216     1.027     1.588
   111   6 C        3.790     0.027    20.134     6.391
   112   1 H        0.925     0.081     1.971     2.196
   113   6 C        3.816    -0.051    21.477     6.596
   114   1 H        0.924     0.063     2.161     2.299
   115   1 H        0.925     0.046     2.376     2.410
   116   6 C        3.801    -0.086    22.138     6.699
   117   1 H        0.924     0.028     2.611     2.527
   118   1 H        0.925     0.050     2.315     2.379
   119   6 C        2.694     0.367    20.774     7.460
   120   8 O        0.857    -0.633    26.948     6.960
   121   8 O        0.857    -0.653    27.459     7.026
   122   6 C        2.746     0.277    22.310     7.734
   123   8 O        0.860    -0.518    24.192     6.595
   124   7 N        2.699    -0.173    24.748     7.388
   125   1 H        0.860     0.202     1.094     1.638
   126   6 C        3.798     0.028    20.104     6.384
   127   1 H        0.925     0.059     2.213     2.326
   128   6 C        3.852    -0.016    20.826     6.491
   129   1 H        0.925     0.060     2.200     2.320
   130   6 C        3.753    -0.112    22.697     6.794
   131   1 H        0.925     0.040     2.455     2.450
   132   1 H        0.924     0.028     2.615     2.529
   133   1 H        0.925     0.061     2.182     2.310
   134   6 C        3.754    -0.120    22.857     6.817
   135   1 H        0.925     0.064     2.147     2.292
   136   1 H        0.924     0.045     2.379     2.412
   137   1 H        0.925     0.051     2.312     2.378
   138   6 C        2.766     0.269    22.463     7.762
   139   8 O        0.861    -0.501    23.805     6.542
   140   7 N        2.696    -0.158    24.410     7.338
   141   1 H        0.860     0.210     1.056     1.610
   142   6 C        3.797     0.031    20.051     6.376
   143   1 H        0.925     0.091     1.867     2.137
   144   6 C        3.854    -0.015    20.798     6.486
   145   1 H        0.925     0.074     2.047     2.238
   146   6 C        3.759    -0.116    22.765     6.802
   147   1 H        0.925     0.034     2.532     2.489
   148   1 H        0.925     0.064     2.155     2.296
   149   1 H        0.925     0.043     2.413     2.429
   150   6 C        3.810    -0.063    21.706     6.632
   151   1 H        0.924     0.040     2.453     2.449
   152   1 H        0.925     0.038     2.472     2.459
   153   6 C        3.748    -0.113    22.732     6.800
   154   1 H        0.924     0.040     2.450     2.448
   155   1 H        0.925     0.053     2.287     2.365
   156   1 H        0.924     0.046     2.370     2.408
   157   6 C        2.758     0.210    23.541     7.945
   158   8 O        0.856    -0.375    21.194     6.172
   159   7 N        2.632    -0.327    28.417     7.917
   160   1 H        0.860     0.204     1.087     1.633
   161   6 C        3.786     0.033    20.038     6.376
   162   1 H        0.925     0.096     1.826     2.113
   163   6 C        3.816    -0.076    21.947     6.668
   164   1 H        0.925     0.077     2.011     2.217
   165   1 H        0.925     0.072     2.068     2.249
   166   6 C        2.960     0.003    27.958     8.673
   167   6 C        2.920    -0.047    29.176     8.858
   168   1 H        0.926     0.047     2.356     2.401
   169   6 C        2.902    -0.071    29.762     8.945
   170   1 H        0.926     0.025     2.653     2.547
   171   6 C        2.842     0.142    24.897     8.177
   172   8 O        1.660    -0.435    21.529     6.264
   173   1 H        0.805     0.321     0.661     1.277
   174   6 C        2.906    -0.059    29.458     8.899
   175   1 H        0.926     0.055     2.260     2.351
   176   6 C        2.911    -0.043    29.080     8.843
   177   1 H        0.926     0.072     2.068     2.249
   178   6 C        2.759     0.202    23.698     7.972
   179   8 O        0.857    -0.373    21.147     6.165
   180   7 N        2.636    -0.303    27.809     7.832
   181   1 H        0.860     0.208     1.066     1.617
   182   6 C        3.784     0.047    19.799     6.338
   183   1 H        0.924     0.071     2.073     2.252
   184   6 C        3.812    -0.074    21.897     6.661
   185   1 H        0.924     0.074     2.037     2.232
   186   1 H        0.925     0.078     1.997     2.210
   187   6 C        3.170     0.050    26.519     8.413
   188   7 N        1.903    -0.319    29.118     8.000
   189   6 C        3.018     0.082    26.153     8.389
   190   1 H        0.926     0.048     2.348     2.396
   191   7 N        2.854    -0.107    23.336     7.175
   192   1 H        0.860     0.224     0.992     1.561
   193   6 C        2.940    -0.036    28.897     8.816
   194   1 H        0.926     0.072     2.060     2.244
   195   6 C        2.763     0.204    23.673     7.968
   196   8 O        0.857    -0.357    20.833     6.120
   197   7 N        2.630    -0.322    28.284     7.899
   198   1 H        0.860     0.189     1.166     1.692
   199   6 C        3.792     0.022    20.208     6.402
   200   1 H        0.924     0.082     1.961     2.190
   201   6 C        3.854    -0.020    20.902     6.502
   202   1 H        0.924     0.061     2.183     2.310
   203   6 C        3.757    -0.129    23.033     6.843
   204   1 H        0.924     0.060     2.196     2.317
   205   1 H        0.924     0.050     2.322     2.383
   206   1 H        0.925     0.055     2.262     2.352
   207   6 C        3.803    -0.061    21.670     6.627
   208   1 H        0.925     0.029     2.594     2.519
   209   1 H        0.924     0.042     2.425     2.435
   210   6 C        3.752    -0.115    22.758     6.803
   211   1 H        0.925     0.036     2.503     2.474
   212   1 H        0.925     0.029     2.594     2.518
   213   1 H        0.924     0.048     2.343     2.394
   214   6 C        2.753     0.278    22.292     7.731
   215   8 O        0.859    -0.503    23.847     6.547
   216   7 N        2.686    -0.146    24.163     7.301
   217   1 H        0.860     0.233     0.951     1.528
   218   6 C        3.797     0.025    20.155     6.392
   219   1 H        0.925     0.087     1.906     2.159
   220   6 C        3.861    -0.022    20.927     6.506
   221   1 H        0.924     0.075     2.031     2.228
   222   6 C        3.770    -0.124    22.915     6.822
   223   1 H        0.924     0.040     2.442     2.444
   224   1 H        0.925     0.052     2.291     2.367
   225   1 H        0.924     0.058     2.225     2.332
   226   6 C        3.817    -0.062    21.683     6.627
   227   1 H        0.924     0.029     2.604     2.524
   228   1 H        0.925     0.038     2.470     2.458
   229   6 C        3.752    -0.115    22.764     6.804
   230   1 H        0.924     0.039     2.462     2.454
   231   1 H        0.925     0.051     2.302     2.372
   232   1 H        0.925     0.031     2.566     2.505
   233   6 C        2.763     0.207    23.614     7.958
   234   8 O        0.856    -0.354    20.775     6.111
   235   1 H        0.860     0.210     1.056     1.610
   236   1 H        0.923     0.058     2.224     2.332
   237   1 H        0.860     0.180     1.214     1.726
   238   1 H        0.923     0.080     1.978     2.199
   239   1 H        0.860     0.208     1.064     1.616
   240   1 H        0.923     0.079     1.990     2.206
   241   1 H        0.860     0.194     1.139     1.672
   242   1 H        0.923     0.070     2.082     2.257
   243   1 H        0.860     0.210     1.055     1.609
   244   1 H        0.923     0.075     2.030     2.228

 Mol. C6AA /au·bohr⁶  :     611937.431401
 Mol. C8AA /au·bohr⁸  :   14236279.189230
 Mol. α(0) /au        :       1190.479589


Wiberg/Mayer (AO) data.
largest (>0.10) Wiberg bond orders for each atom

 ---------------------------------------------------------------------------
     #   Z sym  total        # sym  WBO       # sym  WBO       # sym  WBO
 ---------------------------------------------------------------------------
     1   6 C    3.883 --    17 O    1.674     2 N    1.178    21 C    0.941
     2   7 N    3.478 --     3 C    1.183     1 C    1.178    33 H    0.889
                            17 O    0.131
     3   6 C    3.486 --     2 N    1.183    14 C    1.105     5 C    1.032
     4   6 C    3.916 --    15 C    1.000    34 H    0.967    35 H    0.965
                            12 O    0.948
     5   6 C    3.970 --     3 C    1.032     6 C    0.976    37 H    0.946
                            36 H    0.937
     6   6 C    3.951 --    11 C    1.415     7 C    1.399     5 C    0.976
                             9 C    0.108
     7   6 C    3.982 --     8 C    1.446     6 C    1.399    38 H    0.965
                            10 C    0.114
     8   6 C    3.985 --     7 C    1.446     9 C    1.435    39 H    0.968
                            11 C    0.108
     9   6 C    3.988 --    10 C    1.436     8 C    1.435    40 H    0.972
                             6 C    0.108
    10   6 C    3.990 --    11 C    1.440     9 C    1.436    41 H    0.966
                             7 C    0.114
    11   6 C    3.988 --    10 C    1.440     6 C    1.415    42 H    0.964
                             8 C    0.108
    12   8 O    2.238 --    14 C    1.086     4 C    0.948    13 O    0.140
    13   8 O    1.864 --    14 C    1.589    12 O    0.140
    14   6 C    3.857 --    13 O    1.589     3 C    1.105    12 O    1.086
    15   6 C    3.972 --     4 C    1.000    43 H    0.985    45 H    0.981
                            44 H    0.974
    16   6 C    3.960 --    18 C    1.004    22 N    0.979    46 H    0.969
                            47 H    0.962
    17   8 O    1.912 --     1 C    1.674     2 N    0.131
    18   6 C    3.966 --    16 C    1.004    19 S    0.989    48 H    0.970
                            49 H    0.960
    19  16 S    2.077 --    20 C    0.990    18 C    0.989
    20   6 C    3.978 --    19 S    0.990    21 C    0.989    50 H    0.971
                            51 H    0.963
    21   6 C    3.972 --    22 N    0.992    20 C    0.989     1 C    0.941
                            52 H    0.930
    22   7 N    3.195 --    21 C    0.992    16 C    0.979    23 S    0.902
    23  16 S    4.827 --    30 O    1.566    31 O    1.538    22 N    0.902
                            24 C    0.722
    24   6 C    3.936 --    25 C    1.409    29 C    1.404    23 S    0.722
    25   6 C    3.988 --    26 C    1.445    24 C    1.409    53 H    0.968
                            28 C    0.107
    26   6 C    3.985 --    25 C    1.445    27 C    1.401    54 H    0.962
                            29 C    0.104
    27   6 C    3.979 --    26 C    1.401    28 C    1.399    32 C    1.029
    28   6 C    3.976 --    29 C    1.443    27 C    1.399    55 H    0.950
                            25 C    0.107
    29   6 C    3.978 --    28 C    1.443    24 C    1.404    56 H    0.962
                            26 C    0.104
    30   8 O    1.860 --    23 S    1.566
    31   8 O    1.846 --    23 S    1.538
    32   6 C    3.977 --    27 C    1.029    57 H    0.977    58 H    0.967
                            59 H    0.951
    33   1 H    0.947 --     2 N    0.889
    34   1 H    0.996 --     4 C    0.967
    35   1 H    0.991 --     4 C    0.965
    36   1 H    0.987 --     5 C    0.937
    37   1 H    0.979 --     5 C    0.946
    38   1 H    0.996 --     7 C    0.965
    39   1 H    0.995 --     8 C    0.968
    40   1 H    0.998 --     9 C    0.972
    41   1 H    0.999 --    10 C    0.966
    42   1 H    1.000 --    11 C    0.964
    43   1 H    0.998 --    15 C    0.985
    44   1 H    0.998 --    15 C    0.974
    45   1 H    0.998 --    15 C    0.981
    46   1 H    0.997 --    16 C    0.969
    47   1 H    0.994 --    16 C    0.962
    48   1 H    0.992 --    18 C    0.970
    49   1 H    0.987 --    18 C    0.960
    50   1 H    0.994 --    20 C    0.971
    51   1 H    0.995 --    20 C    0.963
    52   1 H    0.992 --    21 C    0.930
    53   1 H    0.999 --    25 C    0.968
    54   1 H    0.997 --    26 C    0.962
    55   1 H    0.987 --    28 C    0.950
    56   1 H    0.994 --    29 C    0.962
    57   1 H    0.998 --    32 C    0.977
    58   1 H    0.992 --    32 C    0.967
    59   1 H    0.992 --    32 C    0.951
    60   7 N    2.993 --    62 C    1.036    61 H    0.952   235 H    0.942
    61   1 H    0.969 --    60 N    0.952
    62   6 C    3.962 --    60 N    1.036    63 H    0.949    64 C    0.945
                            78 C    0.925
    63   1 H    0.993 --    62 C    0.949
    64   6 C    3.972 --    67 C    1.015    65 H    0.962    66 H    0.955
                            62 C    0.945
    65   1 H    0.990 --    64 C    0.962
    66   1 H    0.995 --    64 C    0.955
    67   6 C    3.985 --    76 C    1.414    68 C    1.401    64 C    1.015
                            72 C    0.108
    68   6 C    3.985 --    70 C    1.452    67 C    1.401    69 H    0.966
                            74 C    0.110
    69   1 H    0.997 --    68 C    0.966
    70   6 C    3.989 --    68 C    1.452    72 C    1.429    71 H    0.970
                            76 C    0.111
    71   1 H    0.997 --    70 C    0.970
    72   6 C    3.983 --    74 C    1.440    70 C    1.429    73 H    0.972
                            67 C    0.108
    73   1 H    0.998 --    72 C    0.972
    74   6 C    3.987 --    72 C    1.440    76 C    1.437    75 H    0.972
                            68 C    0.110
    75   1 H    1.000 --    74 C    0.972
    76   6 C    3.987 --    74 C    1.437    67 C    1.414    77 H    0.966
                            70 C    0.111
    77   1 H    1.000 --    76 C    0.966
    78   6 C    3.918 --    79 O    1.609    80 N    1.308    62 C    0.925
    79   8 O    1.905 --    78 C    1.609    80 N    0.186
    80   7 N    3.473 --    78 C    1.308    82 C    0.987    81 H    0.914
                            79 O    0.186
    81   1 H    0.952 --    80 N    0.914
    82   6 C    3.973 --    90 C    0.994    80 N    0.987    84 C    0.945
                            83 H    0.943
    83   1 H    0.991 --    82 C    0.943
    84   6 C    3.982 --    85 H    0.972    82 C    0.945    86 H    0.940
                            87 C    0.934
    85   1 H    0.998 --    84 C    0.972
    86   1 H    0.996 --    84 C    0.940
    87   6 C    3.936 --    89 O    1.500    88 O    1.478    84 C    0.934
    88   8 O    1.764 --    87 C    1.478    89 O    0.215
    89   8 O    1.789 --    87 C    1.500    88 O    0.215
    90   6 C    3.892 --    91 O    1.890    82 C    0.994   236 H    0.940
    91   8 O    2.053 --    90 C    1.890
    92   7 N    2.999 --    94 C    1.019   237 H    0.952    93 H    0.950
    93   1 H    0.965 --    92 N    0.950
    94   6 C    3.976 --    92 N    1.019    96 C    0.979   107 C    0.947
                            95 H    0.932
    95   1 H    0.994 --    94 C    0.932
    96   6 C    3.982 --    99 C    1.009    94 C    0.979    98 H    0.973
                            97 H    0.970
    97   1 H    0.996 --    96 C    0.970
    98   1 H    0.996 --    96 C    0.973
    99   6 C    3.993 --    96 C    1.009   102 C    0.979   101 H    0.954
                           100 H    0.950
   100   1 H    0.991 --    99 C    0.950
   101   1 H    0.994 --    99 C    0.954
   102   6 C    3.940 --   103 O    1.617   104 N    1.312    99 C    0.979
   103   8 O    1.912 --   102 C    1.617   104 N    0.193
   104   7 N    3.377 --   102 C    1.312   106 H    0.918   105 H    0.917
                           103 O    0.193
   105   1 H    0.939 --   104 N    0.917
   106   1 H    0.939 --   104 N    0.918
   107   6 C    3.938 --   108 O    1.611   109 N    1.292    94 C    0.947
   108   8 O    1.919 --   107 C    1.611   109 N    0.190
   109   7 N    3.464 --   107 C    1.292   111 C    0.985   110 H    0.908
                           108 O    0.190
   110   1 H    0.953 --   109 N    0.908
   111   6 C    3.968 --   109 N    0.985   113 C    0.978   122 C    0.942
                           112 H    0.939
   112   1 H    0.993 --   111 C    0.939
   113   6 C    3.986 --   116 C    1.010   111 C    0.978   115 H    0.971
                           114 H    0.969
   114   1 H    0.995 --   113 C    0.969
   115   1 H    0.997 --   113 C    0.971
   116   6 C    3.977 --   113 C    1.010   117 H    0.970   118 H    0.960
                           119 C    0.932
   117   1 H    0.999 --   116 C    0.970
   118   1 H    0.997 --   116 C    0.960
   119   6 C    3.928 --   120 O    1.496   121 O    1.476   116 C    0.932
   120   8 O    1.771 --   119 C    1.496   121 O    0.210
   121   8 O    1.750 --   119 C    1.476   120 O    0.210
   122   6 C    3.948 --   123 O    1.610   124 N    1.312   111 C    0.942
   123   8 O    1.924 --   122 C    1.610   124 N    0.196
   124   7 N    3.472 --   122 C    1.312   126 C    0.975   125 H    0.905
                           123 O    0.196
   125   1 H    0.959 --   124 N    0.905
   126   6 C    3.960 --   124 N    0.975   128 C    0.961   138 C    0.941
                           127 H    0.937
   127   1 H    0.996 --   126 C    0.937
   128   6 C    3.987 --   130 C    1.008   134 C    1.004   129 H    0.962
                           126 C    0.961
   129   1 H    0.996 --   128 C    0.962
   130   6 C    3.988 --   128 C    1.008   133 H    0.984   132 H    0.983
                           131 H    0.981
   131   1 H    0.998 --   130 C    0.981
   132   1 H    0.999 --   130 C    0.983
   133   1 H    0.996 --   130 C    0.984
   134   6 C    3.991 --   128 C    1.004   136 H    0.986   137 H    0.984
                           135 H    0.984
   135   1 H    0.996 --   134 C    0.984
   136   1 H    0.998 --   134 C    0.986
   137   1 H    0.997 --   134 C    0.984
   138   6 C    3.950 --   139 O    1.627   140 N    1.309   126 C    0.941
   139   8 O    1.961 --   138 C    1.627   140 N    0.197
   140   7 N    3.477 --   138 C    1.309   142 C    0.974   141 H    0.917
                           139 O    0.197
   141   1 H    0.956 --   140 N    0.917
   142   6 C    3.960 --   157 C    0.990   140 N    0.974   144 C    0.945
                           143 H    0.936
   143   1 H    0.991 --   142 C    0.936
   144   6 C    3.982 --   146 C    1.004   150 C    0.998   145 H    0.960
                           142 C    0.945
   145   1 H    0.994 --   144 C    0.960
   146   6 C    3.990 --   144 C    1.004   149 H    0.985   147 H    0.984
                           148 H    0.977
   147   1 H    0.999 --   146 C    0.984
   148   1 H    0.995 --   146 C    0.977
   149   1 H    0.998 --   146 C    0.985
   150   6 C    3.992 --   153 C    1.016   144 C    0.998   151 H    0.973
                           152 H    0.971
   151   1 H    0.998 --   150 C    0.973
   152   1 H    0.999 --   150 C    0.971
   153   6 C    3.990 --   150 C    1.016   155 H    0.986   154 H    0.984
                           156 H    0.984
   154   1 H    0.998 --   153 C    0.984
   155   1 H    0.997 --   153 C    0.986
   156   1 H    0.998 --   153 C    0.984
   157   6 C    3.889 --   158 O    1.888   142 C    0.990   238 H    0.936
   158   8 O    2.043 --   157 C    1.888
   159   7 N    2.984 --   161 C    1.045   160 H    0.943   239 H    0.942
   160   1 H    0.958 --   159 N    0.943
   161   6 C    3.968 --   159 N    1.045   178 C    0.968   163 C    0.943
                           162 H    0.917
   162   1 H    0.988 --   161 C    0.917
   163   6 C    3.974 --   166 C    1.007   165 H    0.972   164 H    0.961
                           161 C    0.943
   164   1 H    0.991 --   163 C    0.961
   165   1 H    0.994 --   163 C    0.972
   166   6 C    3.972 --   167 C    1.411   176 C    1.394   163 C    1.007
   167   6 C    3.983 --   169 C    1.443   166 C    1.411   168 H    0.967
                           174 C    0.106
   168   1 H    0.998 --   167 C    0.967
   169   6 C    3.983 --   167 C    1.443   171 C    1.374   170 H    0.969
                           176 C    0.104
   170   1 H    0.999 --   169 C    0.969
   171   6 C    3.909 --   169 C    1.374   174 C    1.343   172 O    1.067
   172   8 O    2.091 --   171 C    1.067   173 H    0.863
   173   1 H    0.896 --   172 O    0.863
   174   6 C    3.971 --   176 C    1.462   171 C    1.343   175 H    0.969
                           167 C    0.106
   175   1 H    0.997 --   174 C    0.969
   176   6 C    3.981 --   174 C    1.462   166 C    1.394   177 H    0.964
                           169 C    0.104
   177   1 H    0.994 --   176 C    0.964
   178   6 C    3.858 --   179 O    1.888   161 C    0.968   240 H    0.931
   179   8 O    2.044 --   178 C    1.888
   180   7 N    2.960 --   182 C    1.026   241 H    0.946   181 H    0.918
   181   1 H    0.956 --   180 N    0.918
   182   6 C    3.968 --   180 N    1.026   195 C    0.996   183 H    0.942
                           184 C    0.920
   183   1 H    0.977 --   182 C    0.942
   184   6 C    3.964 --   187 C    1.013   185 H    0.965   186 H    0.958
                           182 C    0.920
   185   1 H    0.993 --   184 C    0.965
   186   1 H    0.994 --   184 C    0.958
   187   6 C    3.965 --   193 C    1.560   188 N    1.264   184 C    1.013
   188   7 N    2.991 --   189 C    1.529   187 C    1.264   191 N    0.104
   189   6 C    3.958 --   188 N    1.529   191 N    1.298   190 H    0.964
                           193 C    0.115
   190   1 H    0.997 --   189 C    0.964
   191   7 N    3.584 --   189 C    1.298   193 C    1.191   192 H    0.920
                           188 N    0.104
   192   1 H    0.950 --   191 N    0.920
   193   6 C    3.920 --   187 C    1.560   191 N    1.191   194 H    0.957
                           189 C    0.115
   194   1 H    0.995 --   193 C    0.957
   195   6 C    3.891 --   196 O    1.889   182 C    0.996   242 H    0.939
   196   8 O    2.053 --   195 C    1.889
   197   7 N    2.962 --   199 C    1.022   198 H    0.940   243 H    0.940
   198   1 H    0.964 --   197 N    0.940
   199   6 C    3.946 --   197 N    1.022   201 C    0.961   200 H    0.933
                           214 C    0.924
   200   1 H    0.968 --   199 C    0.933
   201   6 C    3.987 --   203 C    1.007   207 C    0.995   199 C    0.961
                           202 H    0.960
   202   1 H    0.993 --   201 C    0.960
   203   6 C    3.990 --   201 C    1.007   206 H    0.980   204 H    0.979
                           205 H    0.968
   204   1 H    0.996 --   203 C    0.979
   205   1 H    0.997 --   203 C    0.968
   206   1 H    0.997 --   203 C    0.980
   207   6 C    3.992 --   210 C    1.018   201 C    0.995   209 H    0.972
                           208 H    0.970
   208   1 H    0.999 --   207 C    0.970
   209   1 H    0.998 --   207 C    0.972
   210   6 C    3.992 --   207 C    1.018   211 H    0.985   212 H    0.984
                           213 H    0.983
   211   1 H    0.999 --   210 C    0.985
   212   1 H    0.999 --   210 C    0.984
   213   1 H    0.997 --   210 C    0.983
   214   6 C    3.923 --   215 O    1.613   216 N    1.316   199 C    0.924
   215   8 O    1.923 --   214 C    1.613   216 N    0.194
   216   7 N    3.483 --   214 C    1.316   218 C    0.970   217 H    0.908
                           215 O    0.194
   217   1 H    0.946 --   216 N    0.908
   218   6 C    3.962 --   233 C    0.974   216 N    0.970   219 H    0.958
                           220 C    0.952
   219   1 H    0.992 --   218 C    0.958
   220   6 C    3.984 --   222 C    1.005   226 C    0.993   221 H    0.957
                           218 C    0.952
   221   1 H    0.994 --   220 C    0.957
   222   6 C    3.990 --   220 C    1.005   223 H    0.984   224 H    0.984
                           225 H    0.979
   223   1 H    0.998 --   222 C    0.984
   224   1 H    0.997 --   222 C    0.984
   225   1 H    0.996 --   222 C    0.979
   226   6 C    3.990 --   229 C    1.016   220 C    0.993   228 H    0.974
                           227 H    0.971
   227   1 H    0.999 --   226 C    0.971
   228   1 H    0.998 --   226 C    0.974
   229   6 C    3.994 --   226 C    1.016   232 H    0.987   230 H    0.983
                           231 H    0.982
   230   1 H    0.998 --   229 C    0.983
   231   1 H    0.997 --   229 C    0.982
   232   1 H    0.998 --   229 C    0.987
   233   6 C    3.882 --   234 O    1.898   218 C    0.974   244 H    0.937
   234   8 O    2.070 --   233 C    1.898
   235   1 H    0.956 --    60 N    0.942
   236   1 H    0.996 --    90 C    0.940
   237   1 H    0.967 --    92 N    0.952
   238   1 H    0.993 --   157 C    0.936
   239   1 H    0.957 --   159 N    0.942
   240   1 H    0.986 --   178 C    0.931
   241   1 H    0.962 --   180 N    0.946
   242   1 H    0.994 --   195 C    0.939
   243   1 H    0.955 --   197 N    0.940
   244   1 H    0.993 --   233 C    0.937
 ---------------------------------------------------------------------------

Topologies differ in total number of bonds
Writing topology from bond orders to xtbtopo.mol

molecular dipole:
                 x           y           z       tot (Debye)
 q only:      -64.002     -65.026     -98.161
   full:      -64.590     -64.076     -97.370     338.716
molecular quadrupole (traceless):
                xx          xy          yy          xz          yz          zz
 q only:     2455.114   -6607.688    2535.509   -9713.344   -9177.794   -4990.623
  q+dip:     2266.383   -6551.541    2645.846   -9689.842   -9024.650   -4912.229
   full:     2264.690   -6553.034    2648.141   -9690.757   -9022.279   -4912.830


           -------------------------------------------------
          | TOTAL ENERGY             -377.994497782544 Eh   |
          | GRADIENT NORM               0.289042970202 Eh/α |
          | HOMO-LUMO GAP               0.241997861777 eV   |
           -------------------------------------------------
Note: The following floating-point exceptions are signalling: IEEE_UNDERFLOW_FLAG IEEE_DENORMAL
normal termination of xtb

------------------------------------------------------------------------
 * finished run on 2026/01/05 at 09:06:23.399     
------------------------------------------------------------------------
 total:
 * wall-time:     0 d,  0 h,  0 min,  2.711 sec
 *  cpu-time:     0 d,  0 h,  0 min, 39.684 sec
 * ratio c/w:    14.638 speedup
 SCF:
 * wall-time:     0 d,  0 h,  0 min,  2.636 sec
 *  cpu-time:     0 d,  0 h,  0 min, 38.549 sec
 * ratio c/w:    14.624 speedup

