      -----------------------------------------------------------      
     |                   =====================                   |     
     |                           x T B                           |     
     |                   =====================                   |     
     |                         S. Grimme                         |     
     |          Mulliken Center for Theoretical Chemistry        |     
     |                    University of Bonn                     |     
      -----------------------------------------------------------      

   * xtb version 6.7.1 (edcfbbe) compiled by 'conda@c0858423619e' on 2025-09-04

   xtb is free software: you can redistribute it and/or modify it under
   the terms of the GNU Lesser General Public License as published by
   the Free Software Foundation, either version 3 of the License, or
   (at your option) any later version.
   
   xtb is distributed in the hope that it will be useful,
   but WITHOUT ANY WARRANTY; without even the implied warranty of
   MERCHANTABILITY or FITNESS FOR A PARTICULAR PURPOSE.  See the
   GNU Lesser General Public License for more details.
   
   Cite this work as:
   * C. Bannwarth, E. Caldeweyher, S. Ehlert, A. Hansen, P. Pracht,
     J. Seibert, S. Spicher, S. Grimme, WIREs Comput. Mol. Sci., 2020, 11,
     e01493. DOI: 10.1002/wcms.1493
   
   for GFN2-xTB:
   * C. Bannwarth, S. Ehlert and S. Grimme., J. Chem. Theory Comput., 2019,
     15, 1652-1671. DOI: 10.1021/acs.jctc.8b01176
   for GFN1-xTB:
   * S. Grimme, C. Bannwarth, P. Shushkov, J. Chem. Theory Comput., 2017,
     13, 1989-2009. DOI: 10.1021/acs.jctc.7b00118
   for GFN0-xTB:
   * P. Pracht, E. Caldeweyher, S. Ehlert, S. Grimme, ChemRxiv, 2019, preprint.
     DOI: 10.26434/chemrxiv.8326202.v1
   for GFN-FF:
   * S. Spicher and S. Grimme, Angew. Chem. Int. Ed., 2020, 59, 15665-15673.
     DOI: 10.1002/anie.202004239
   
   for ALPB and GBSA implicit solvation:
   * S. Ehlert, M. Stahn, S. Spicher, S. Grimme, J. Chem. Theory Comput.,
     2021, 17, 4250-4261. DOI: 10.1021/acs.jctc.1c00471
   
   for ddCOSMO and CPCM-X implicit solvation:
   * M. Stahn, S. Ehlert, S. Grimme, J. Phys. Chem. A,
     2023, XX, XXXX-XXXX. DOI: 10.1021/acs.jpca.3c04382
   
   for DFT-D4:
   * E. Caldeweyher, C. Bannwarth and S. Grimme, J. Chem. Phys., 2017,
     147, 034112. DOI: 10.1063/1.4993215
   * E. Caldeweyher, S. Ehlert, A. Hansen, H. Neugebauer, S. Spicher,
     C. Bannwarth and S. Grimme, J. Chem. Phys., 2019, 150, 154122.
     DOI: 10.1063/1.5090222
   * E. Caldeweyher, J.-M. Mewes, S. Ehlert and S. Grimme, Phys. Chem. Chem. Phys.
     2020, 22, 8499-8512. DOI: 10.1039/D0CP00502A
   
   for sTDA-xTB:
   * S. Grimme and C. Bannwarth, J. Chem. Phys., 2016, 145, 054103.
     DOI: 10.1063/1.4959605
   
   in the mass-spec context:
   * V. Asgeirsson, C. Bauer and S. Grimme, Chem. Sci., 2017, 8, 4879.
     DOI: 10.1039/c7sc00601b
   * J. Koopman and S. Grimme, ACS Omega 2019, 4, 12, 15120-15133.
     DOI: 10.1021/acsomega.9b02011
   
   for metadynamics refer to:
   * S. Grimme, J. Chem. Theory Comput., 2019, 155, 2847-2862
     DOI: 10.1021/acs.jctc.9b00143
   
   for SPH calculations refer to:
   * S. Spicher and S. Grimme, J. Chem. Theory Comput., 2021, 17, 1701-1714
     DOI: 10.1021/acs.jctc.0c01306
   
   for ONIOM refer to:
   * C. Plett, A. Katbashev, S. Ehlert, S. Grimme, M. Bursch,
     Phys. Chem. Chem. Phys., 2023, 25, 17860-17868. DOI: 10.1039/D3CP02178E
   
   for DIPRO refer to:
   * J. Kohn, N. Gildemeister, S. Grimme, D. Fazzi, A. Hansen,
     J. Chem. Phys., 2023, just accepted.
   
   for PTB refer to:
   * S. Grimme, M. Mueller, A. Hansen, J. Chem. Phys., 2023, 158, 124111.
     DOI: 10.1063/5.0137838
   
   with help from (in alphabetical order)
   P. Atkinson, C. Bannwarth, F. Bohle, G. Brandenburg, E. Caldeweyher
   M. Checinski, S. Dohm, S. Ehlert, S. Ehrlich, I. Gerasimov, C. Hölzer
   A. Katbashev, J. Kohn, J. Koopman, C. Lavigne, S. Lehtola, F. März, M. Müller,
   F. Musil, H. Neugebauer, J. Pisarek, C. Plett, P. Pracht, F. Pultar,
   J. Seibert, P. Shushkov, S. Spicher, M. Stahn, M. Steiner, T. Strunk,
   J. Stückrath, T. Rose, and J. Unsleber
   
 * started run on 2026/01/05 at 09:06:59.921     
   ID    Z sym.   atoms
    1    6 C      1, 3-11, 14-16, 18, 20, 21, 24-29, 32
    2    7 N      2, 22
    3    8 O      12, 13, 17, 30, 31
    4   16 S      19, 23
    5    1 H      33-59

           -------------------------------------------------
          |                Calculation Setup                |
           -------------------------------------------------

          program call               : xtb /home/antonio_mesquita/Documentos/gmx_ISA_project/testes_arquivos_primeiros/gmx_ISA_testes/testes_qm_xtb/QM_analysis/QM_FRAMES_CAPPED/frame_2600ps/ligand_isolated_2600ps.xyz --gfn 2 --alpb water --chrg 1 --etemp 1500 --cycles 1000
          coordinate file            : /home/antonio_mesquita/Documentos/gmx_ISA_project/testes_arquivos_primeiros/gmx_ISA_testes/testes_qm_xtb/QM_analysis/QM_FRAMES_CAPPED/frame_2600ps/ligand_isolated_2600ps.xyz
          omp threads                :                    16


           -------------------------------------------------
          |                 G F N 2 - x T B                 |
           -------------------------------------------------

        Reference                      10.1021/acs.jctc.8b01176
      * Hamiltonian:
        H0-scaling (s, p, d)           1.850000    2.230000    2.230000
        zeta-weighting                 0.500000
      * Dispersion:
        s8                             2.700000
        a1                             0.520000
        a2                             5.000000
        s9                             5.000000
      * Repulsion:
        kExp                           1.500000    1.000000
        rExp                           1.000000
      * Coulomb:
        alpha                          2.000000
        third order                    shell-resolved
        anisotropic                    true
        a3                             3.000000
        a5                             4.000000
        cn-shift                       1.200000
        cn-exp                         4.000000
        max-rad                        5.000000

      * Solvation model:               ALPB
        Solvent                        water
        Parameter file                 internal GFN2-xTB/ALPB
        Dielectric constant                8.0200E+01
        Reference state                gsolv [1 M gas/solution]
        Free energy shift                  1.0808E-03 Eh       6.7819E-01 kcal/mol
        Temperature                        2.9815E+02 K
        Density                            1.0000E+00 kg/L
        Solvent mass                       1.8000E+01 g/mol
        Interaction kernel             P16
        Born radius scaling (c1)           1.4744E+00
        Born radii integrator          GBOBC
        Born offset                        0.0000E+00 a0       0.0000E+00 AA
        H-bond correction              true
        Ion screening                  false
        Surface tension                    1.0000E-05 Eh       1.5569E+01 dyn/cm
        Grid points                               230 per atom

          ...................................................
          :                      SETUP                      :
          :.................................................:
          :  # basis functions                 167          :
          :  # atomic orbitals                 165          :
          :  # shells                           93          :
          :  # electrons                       170          :
          :  max. iterations                   250          :
          :  Hamiltonian                  GFN2-xTB          :
          :  restarted?                      false          :
          :  GBSA solvation                   true          :
          :  PC potential                    false          :
          :  electronic temp.         1500.0000000     K    :
          :  accuracy                    1.0000000          :
          :  -> integral cutoff          0.2500000E+02      :
          :  -> integral neglect         0.1000000E-07      :
          :  -> SCF convergence          0.1000000E-05 Eh   :
          :  -> wf. convergence          0.1000000E-03 e    :
          :  Broyden damping             0.4000000          :
          :  net charge                          1          :
          :  unpaired electrons                  0          :
          ...................................................

 iter      E             dE          RMSdq      gap      omega  full diag
   1    -96.2187893 -0.962188E+02  0.489E+00    0.91       0.0  T
   2    -96.2029621  0.158272E-01  0.385E+00    0.44       1.0  T
   3    -96.3048098 -0.101848E+00  0.276E+00    1.51       1.0  T
   4    -96.3933586 -0.885488E-01  0.149E+00    0.65       1.0  T
   5    -96.3723268  0.210318E-01  0.125E+00    0.99       1.0  T
   6    -96.4178035 -0.454768E-01  0.341E-01    0.42       1.0  T
   7    -96.4189113 -0.110780E-02  0.152E-01    0.31       1.0  T
   8    -96.4191544 -0.243056E-03  0.919E-02    0.36       1.0  T
   9    -96.4192863 -0.131911E-03  0.276E-02    0.34       1.0  T
  10    -96.4192884 -0.209362E-05  0.252E-02    0.35       1.0  T
  11    -96.4192970 -0.865831E-05  0.146E-02    0.34       1.0  T
  12    -96.4193011 -0.401741E-05  0.661E-03    0.35       2.0  T
  13    -96.4193019 -0.825325E-06  0.113E-03    0.35      11.6  T
  14    -96.4193019 -0.138635E-08  0.838E-04    0.35      15.5  T
  15    -96.4193019 -0.122170E-07  0.395E-04    0.35      33.0  T

   *** convergence criteria satisfied after 15 iterations ***

         #    Occupation            Energy/Eh            Energy/eV
      -------------------------------------------------------------
         1        2.0000           -0.7996999             -21.7609
       ...           ...                  ...                  ...
        79        1.9996           -0.4322810             -11.7630
        80        1.9985           -0.4264509             -11.6043
        81        1.9958           -0.4215775             -11.4717
        82        1.9901           -0.4174613             -11.3597
        83        1.9797           -0.4140206             -11.2661
        84        1.9772           -0.4134617             -11.2509
        85        1.6134           -0.3990476             -10.8586 (HOMO)
        86        0.4463           -0.3863348             -10.5127 (LUMO)
        87                         -0.2840141              -7.7284
        88                         -0.2652787              -7.2186
        89                         -0.2528819              -6.8813
        90                         -0.2450750              -6.6688
       ...                                ...                  ...
       165                          1.0535726              28.6692
      -------------------------------------------------------------
                  HL-Gap            0.0127129 Eh            0.3459 eV
             Fermi-level           -0.3922607 Eh          -10.6740 eV

 SCC (total)                   0 d,  0 h,  0 min,  0.221 sec
 SCC setup                      ...        0 min,  0.002 sec (  1.042%)
 Dispersion                     ...        0 min,  0.002 sec (  1.043%)
 classical contributions        ...        0 min,  0.003 sec (  1.504%)
 integral evaluation            ...        0 min,  0.018 sec (  8.133%)
 iterations                     ...        0 min,  0.162 sec ( 73.307%)
 molecular gradient             ...        0 min,  0.033 sec ( 14.774%)
 printout                       ...        0 min,  0.000 sec (  0.185%)

         :::::::::::::::::::::::::::::::::::::::::::::::::::::
         ::                     SUMMARY                     ::
         :::::::::::::::::::::::::::::::::::::::::::::::::::::
         :: total energy             -95.277859171249 Eh    ::
         :: total w/o Gsasa/hb       -95.273372101466 Eh    ::
         :: gradient norm              0.161720635180 Eh/a0 ::
         :: HOMO-LUMO gap              0.345934430165 eV    ::
         ::.................................................::
         :: SCC energy               -96.418356127225 Eh    ::
         :: -> isotropic ES            0.246803048443 Eh    ::
         :: -> anisotropic ES         -0.025912961163 Eh    ::
         :: -> anisotropic XC          0.040079135751 Eh    ::
         :: -> dispersion             -0.068240023394 Eh    ::
         :: -> Gsolv                  -0.099152991110 Eh    ::
         ::    -> Gelec               -0.094665921327 Eh    ::
         ::    -> Gsasa                0.002953468265 Eh    ::
         ::    -> Ghb                 -0.008521297747 Eh    ::
         ::    -> Gshift               0.001080759698 Eh    ::
         :: repulsion energy           1.140496955975 Eh    ::
         :: add. restraining           0.000000000000 Eh    ::
         :: total charge               0.999999999999 e     ::
         :::::::::::::::::::::::::::::::::::::::::::::::::::::

           -------------------------------------------------
          |                Property Printout                |
           -------------------------------------------------

    * Orbital Energies and Occupations

         #    Occupation            Energy/Eh            Energy/eV
      -------------------------------------------------------------
         1        2.0000           -0.7996999             -21.7609
       ...           ...                  ...                  ...
        73        2.0000           -0.4574789             -12.4486
        74        2.0000           -0.4548432             -12.3769
        75        1.9999           -0.4399759             -11.9724
        76        1.9999           -0.4395793             -11.9616
        77        1.9999           -0.4380370             -11.9196
        78        1.9997           -0.4341098             -11.8127
        79        1.9996           -0.4322810             -11.7630
        80        1.9985           -0.4264509             -11.6043
        81        1.9958           -0.4215775             -11.4717
        82        1.9901           -0.4174613             -11.3597
        83        1.9797           -0.4140206             -11.2661
        84        1.9772           -0.4134617             -11.2509
        85        1.6134           -0.3990476             -10.8586 (HOMO)
        86        0.4463           -0.3863348             -10.5127 (LUMO)
        87                         -0.2840141              -7.7284
        88                         -0.2652787              -7.2186
        89                         -0.2528819              -6.8813
        90                         -0.2450750              -6.6688
        91                         -0.2405878              -6.5467
        92                         -0.2347049              -6.3866
        93                         -0.2331080              -6.3432
        94                         -0.1894677              -5.1557
        95                         -0.1756620              -4.7800
        96                         -0.1529533              -4.1621
       ...                                ...                  ...
       165                          1.0535726              28.6692
      -------------------------------------------------------------
                  HL-Gap            0.0127129 Eh            0.3459 eV
             Fermi-level           -0.3922607 Eh          -10.6740 eV

     #   Z          covCN         q      C6AA      α(0)
     1   6 C        2.743     0.281    22.239     7.721
     2   7 N        2.694    -0.083    22.867     7.102
     3   6 C        2.867     0.087    26.070     8.370
     4   6 C        3.679     0.062    19.739     6.364
     5   6 C        3.808    -0.079    22.003     6.677
     6   6 C        2.954     0.031    27.317     8.573
     7   6 C        2.918    -0.036    28.896     8.815
     8   6 C        2.905    -0.033    28.829     8.804
     9   6 C        2.923    -0.031    28.762     8.795
    10   6 C        2.900    -0.031    28.765     8.794
    11   6 C        2.935    -0.036    28.885     8.814
    12   8 O        1.703    -0.234    17.878     5.709
    13   8 O        0.857    -0.430    22.297     6.331
    14   6 C        2.706     0.347    21.100     7.519
    15   6 C        3.744    -0.135    23.180     6.868
    16   6 C        3.838    -0.004    20.616     6.459
    17   8 O        0.857    -0.399    21.656     6.239
    18   6 C        3.790    -0.056    21.592     6.618
    19  16 S        1.980     0.062   138.551    19.811
    20   6 C        3.788    -0.075    21.952     6.673
    21   6 C        3.849     0.022    20.166     6.387
    22   7 N        2.728    -0.259    26.707     7.675
    23  16 S        3.798     1.140   102.732    17.059
    24   6 C        2.961    -0.082    30.044     8.991
    25   6 C        2.925    -0.030    28.748     8.793
    26   6 C        2.928    -0.036    28.907     8.817
    27   6 C        2.953     0.041    27.078     8.535
    28   6 C        2.920    -0.040    28.991     8.830
    29   6 C        2.963    -0.039    28.966     8.828
    30   8 O        0.859    -0.654    27.472     7.027
    31   8 O        0.859    -0.637    27.042     6.972
    32   6 C        3.751    -0.139    23.237     6.874
    33   1 H        0.860     0.278     0.784     1.387
    34   1 H        0.924     0.086     1.915     2.164
    35   1 H        0.924     0.091     1.870     2.138
    36   1 H        0.924     0.126     1.564     1.955
    37   1 H        0.925     0.136     1.490     1.909
    38   1 H        0.924     0.052     2.295     2.369
    39   1 H        0.926     0.054     2.272     2.357
    40   1 H        0.925     0.049     2.338     2.391
    41   1 H        0.926     0.070     2.091     2.261
    42   1 H        0.925     0.060     2.195     2.317
    43   1 H        0.923     0.060     2.195     2.317
    44   1 H        0.924     0.078     1.999     2.211
    45   1 H        0.922     0.062     2.177     2.307
    46   1 H        0.923     0.058     2.222     2.331
    47   1 H        0.923     0.081     1.967     2.193
    48   1 H        0.923     0.116     1.649     2.008
    49   1 H        0.924     0.119     1.620     1.991
    50   1 H        0.924     0.141     1.457     1.888
    51   1 H        0.923     0.139     1.472     1.897
    52   1 H        0.922     0.121     1.603     1.980
    53   1 H        0.925     0.082     1.956     2.187
    54   1 H        0.925     0.080     1.976     2.198
    55   1 H        0.925     0.075     2.031     2.229
    56   1 H        0.926     0.065     2.142     2.288
    57   1 H        0.924     0.078     2.002     2.213
    58   1 H        0.924     0.066     2.127     2.281
    59   1 H        0.925     0.081     1.967     2.193

 Mol. C6AA /au·bohr⁶  :      43353.772418
 Mol. C8AA /au·bohr⁸  :    1117117.525667
 Mol. α(0) /au        :        323.806919


Wiberg/Mayer (AO) data.
largest (>0.10) Wiberg bond orders for each atom

 ---------------------------------------------------------------------------
     #   Z sym  total        # sym  WBO       # sym  WBO       # sym  WBO
 ---------------------------------------------------------------------------
     1   6 C    3.888 --    17 O    1.742     2 N    1.129    21 C    0.936
     2   7 N    3.536 --     3 C    1.302     1 C    1.129    33 H    0.855
                            17 O    0.108
     3   6 C    3.626 --     2 N    1.302     5 C    1.073    14 C    1.024
     4   6 C    3.897 --    15 C    1.005    34 H    0.964    35 H    0.955
                            12 O    0.931
     5   6 C    3.952 --     3 C    1.073    36 H    0.945     6 C    0.933
                            37 H    0.908
     6   6 C    3.936 --     7 C    1.411    11 C    1.409     5 C    0.933
                             9 C    0.101
     7   6 C    3.972 --     8 C    1.420     6 C    1.411    38 H    0.968
                            10 C    0.113
     8   6 C    3.971 --     9 C    1.448     7 C    1.420    39 H    0.967
                            11 C    0.104
     9   6 C    3.971 --     8 C    1.448    10 C    1.421    40 H    0.967
                             6 C    0.101
    10   6 C    3.965 --    11 C    1.433     9 C    1.421    41 H    0.966
                             7 C    0.113
    11   6 C    3.971 --    10 C    1.433     6 C    1.409    42 H    0.963
                             8 C    0.104
    12   8 O    2.322 --    14 C    1.151     4 C    0.931    13 O    0.185
    13   8 O    1.967 --    14 C    1.653    12 O    0.185
    14   6 C    3.903 --    13 O    1.653    12 O    1.151     3 C    1.024
    15   6 C    3.981 --     4 C    1.005    45 H    0.987    43 H    0.986
                            44 H    0.981
    16   6 C    3.946 --    18 C    1.002    22 N    0.980    46 H    0.963
                            47 H    0.955
    17   8 O    2.003 --     1 C    1.742     2 N    0.108
    18   6 C    3.946 --    16 C    1.002    19 S    0.991    49 H    0.958
                            48 H    0.951
    19  16 S    2.110 --    20 C    0.996    18 C    0.991
    20   6 C    3.934 --    19 S    0.996    21 C    0.992    51 H    0.947
                            50 H    0.934
    21   6 C    3.953 --    20 C    0.992    22 N    0.983     1 C    0.936
                            52 H    0.913
    22   7 N    3.190 --    21 C    0.983    16 C    0.980    23 S    0.892
    23  16 S    4.831 --    31 O    1.567    30 O    1.538    22 N    0.892
                            24 C    0.735
    24   6 C    3.937 --    25 C    1.406    29 C    1.406    23 S    0.735
    25   6 C    3.978 --    26 C    1.439    24 C    1.406    53 H    0.962
                            28 C    0.107
    26   6 C    3.980 --    25 C    1.439    27 C    1.400    54 H    0.963
                            29 C    0.103
    27   6 C    3.976 --    26 C    1.400    28 C    1.398    32 C    1.033
    28   6 C    3.981 --    29 C    1.443    27 C    1.398    55 H    0.965
                            25 C    0.107
    29   6 C    3.985 --    28 C    1.443    24 C    1.406    56 H    0.966
                            26 C    0.103
    30   8 O    1.837 --    23 S    1.538    31 O    0.102
    31   8 O    1.855 --    23 S    1.567    30 O    0.102
    32   6 C    3.983 --    27 C    1.033    58 H    0.982    57 H    0.961
                            59 H    0.960
    33   1 H    0.922 --     2 N    0.855
    34   1 H    0.990 --     4 C    0.964
    35   1 H    0.986 --     4 C    0.955
    36   1 H    0.981 --     5 C    0.945
    37   1 H    0.964 --     5 C    0.908
    38   1 H    0.996 --     7 C    0.968
    39   1 H    0.994 --     8 C    0.967
    40   1 H    0.993 --     9 C    0.967
    41   1 H    0.992 --    10 C    0.966
    42   1 H    0.995 --    11 C    0.963
    43   1 H    0.995 --    15 C    0.986
    44   1 H    0.994 --    15 C    0.981
    45   1 H    0.995 --    15 C    0.987
    46   1 H    0.992 --    16 C    0.963
    47   1 H    0.993 --    16 C    0.955
    48   1 H    0.969 --    18 C    0.951
    49   1 H    0.984 --    18 C    0.958
    50   1 H    0.959 --    20 C    0.934
    51   1 H    0.979 --    20 C    0.947
    52   1 H    0.982 --    21 C    0.913
    53   1 H    0.993 --    25 C    0.962
    54   1 H    0.992 --    26 C    0.963
    55   1 H    0.993 --    28 C    0.965
    56   1 H    0.995 --    29 C    0.966
    57   1 H    0.992 --    32 C    0.961
    58   1 H    0.995 --    32 C    0.982
    59   1 H    0.992 --    32 C    0.960
 ---------------------------------------------------------------------------

Topologies differ in total number of bonds
Writing topology from bond orders to xtbtopo.mol

molecular dipole:
                 x           y           z       tot (Debye)
 q only:       38.018      21.909     101.082
   full:       38.442      21.562     101.071     280.263
molecular quadrupole (traceless):
                xx          xy          yy          xz          yz          zz
 q only:    -3915.704    1335.018   -5328.869    5806.074    3347.282    9244.573
  q+dip:    -3879.420    1325.257   -5356.393    5865.639    3289.666    9235.813
   full:    -3878.011    1323.905   -5356.738    5864.859    3290.042    9234.750


           -------------------------------------------------
          | TOTAL ENERGY              -95.277859171249 Eh   |
          | GRADIENT NORM               0.161720635180 Eh/α |
          | HOMO-LUMO GAP               0.345934430165 eV   |
           -------------------------------------------------
Note: The following floating-point exceptions are signalling: IEEE_UNDERFLOW_FLAG IEEE_DENORMAL
normal termination of xtb

------------------------------------------------------------------------
 * finished run on 2026/01/05 at 09:07:00.163     
------------------------------------------------------------------------
 total:
 * wall-time:     0 d,  0 h,  0 min,  0.242 sec
 *  cpu-time:     0 d,  0 h,  0 min,  3.636 sec
 * ratio c/w:    15.016 speedup
 SCF:
 * wall-time:     0 d,  0 h,  0 min,  0.221 sec
 *  cpu-time:     0 d,  0 h,  0 min,  3.330 sec
 * ratio c/w:    15.049 speedup

