      -----------------------------------------------------------      
     |                   =====================                   |     
     |                           x T B                           |     
     |                   =====================                   |     
     |                         S. Grimme                         |     
     |          Mulliken Center for Theoretical Chemistry        |     
     |                    University of Bonn                     |     
      -----------------------------------------------------------      

   * xtb version 6.7.1 (edcfbbe) compiled by 'conda@c0858423619e' on 2025-09-04

   xtb is free software: you can redistribute it and/or modify it under
   the terms of the GNU Lesser General Public License as published by
   the Free Software Foundation, either version 3 of the License, or
   (at your option) any later version.
   
   xtb is distributed in the hope that it will be useful,
   but WITHOUT ANY WARRANTY; without even the implied warranty of
   MERCHANTABILITY or FITNESS FOR A PARTICULAR PURPOSE.  See the
   GNU Lesser General Public License for more details.
   
   Cite this work as:
   * C. Bannwarth, E. Caldeweyher, S. Ehlert, A. Hansen, P. Pracht,
     J. Seibert, S. Spicher, S. Grimme, WIREs Comput. Mol. Sci., 2020, 11,
     e01493. DOI: 10.1002/wcms.1493
   
   for GFN2-xTB:
   * C. Bannwarth, S. Ehlert and S. Grimme., J. Chem. Theory Comput., 2019,
     15, 1652-1671. DOI: 10.1021/acs.jctc.8b01176
   for GFN1-xTB:
   * S. Grimme, C. Bannwarth, P. Shushkov, J. Chem. Theory Comput., 2017,
     13, 1989-2009. DOI: 10.1021/acs.jctc.7b00118
   for GFN0-xTB:
   * P. Pracht, E. Caldeweyher, S. Ehlert, S. Grimme, ChemRxiv, 2019, preprint.
     DOI: 10.26434/chemrxiv.8326202.v1
   for GFN-FF:
   * S. Spicher and S. Grimme, Angew. Chem. Int. Ed., 2020, 59, 15665-15673.
     DOI: 10.1002/anie.202004239
   
   for ALPB and GBSA implicit solvation:
   * S. Ehlert, M. Stahn, S. Spicher, S. Grimme, J. Chem. Theory Comput.,
     2021, 17, 4250-4261. DOI: 10.1021/acs.jctc.1c00471
   
   for ddCOSMO and CPCM-X implicit solvation:
   * M. Stahn, S. Ehlert, S. Grimme, J. Phys. Chem. A,
     2023, XX, XXXX-XXXX. DOI: 10.1021/acs.jpca.3c04382
   
   for DFT-D4:
   * E. Caldeweyher, C. Bannwarth and S. Grimme, J. Chem. Phys., 2017,
     147, 034112. DOI: 10.1063/1.4993215
   * E. Caldeweyher, S. Ehlert, A. Hansen, H. Neugebauer, S. Spicher,
     C. Bannwarth and S. Grimme, J. Chem. Phys., 2019, 150, 154122.
     DOI: 10.1063/1.5090222
   * E. Caldeweyher, J.-M. Mewes, S. Ehlert and S. Grimme, Phys. Chem. Chem. Phys.
     2020, 22, 8499-8512. DOI: 10.1039/D0CP00502A
   
   for sTDA-xTB:
   * S. Grimme and C. Bannwarth, J. Chem. Phys., 2016, 145, 054103.
     DOI: 10.1063/1.4959605
   
   in the mass-spec context:
   * V. Asgeirsson, C. Bauer and S. Grimme, Chem. Sci., 2017, 8, 4879.
     DOI: 10.1039/c7sc00601b
   * J. Koopman and S. Grimme, ACS Omega 2019, 4, 12, 15120-15133.
     DOI: 10.1021/acsomega.9b02011
   
   for metadynamics refer to:
   * S. Grimme, J. Chem. Theory Comput., 2019, 155, 2847-2862
     DOI: 10.1021/acs.jctc.9b00143
   
   for SPH calculations refer to:
   * S. Spicher and S. Grimme, J. Chem. Theory Comput., 2021, 17, 1701-1714
     DOI: 10.1021/acs.jctc.0c01306
   
   for ONIOM refer to:
   * C. Plett, A. Katbashev, S. Ehlert, S. Grimme, M. Bursch,
     Phys. Chem. Chem. Phys., 2023, 25, 17860-17868. DOI: 10.1039/D3CP02178E
   
   for DIPRO refer to:
   * J. Kohn, N. Gildemeister, S. Grimme, D. Fazzi, A. Hansen,
     J. Chem. Phys., 2023, just accepted.
   
   for PTB refer to:
   * S. Grimme, M. Mueller, A. Hansen, J. Chem. Phys., 2023, 158, 124111.
     DOI: 10.1063/5.0137838
   
   with help from (in alphabetical order)
   P. Atkinson, C. Bannwarth, F. Bohle, G. Brandenburg, E. Caldeweyher
   M. Checinski, S. Dohm, S. Ehlert, S. Ehrlich, I. Gerasimov, C. Hölzer
   A. Katbashev, J. Kohn, J. Koopman, C. Lavigne, S. Lehtola, F. März, M. Müller,
   F. Musil, H. Neugebauer, J. Pisarek, C. Plett, P. Pracht, F. Pultar,
   J. Seibert, P. Shushkov, S. Spicher, M. Stahn, M. Steiner, T. Strunk,
   J. Stückrath, T. Rose, and J. Unsleber
   
 * started run on 2026/01/05 at 09:07:08.987     
   ID    Z sym.   atoms
    1    6 C      1, 3-11, 14-16, 18, 20, 21, 24-29, 32
    2    7 N      2, 22
    3    8 O      12, 13, 17, 30, 31
    4   16 S      19, 23
    5    1 H      33-59

           -------------------------------------------------
          |                Calculation Setup                |
           -------------------------------------------------

          program call               : xtb /home/antonio_mesquita/Documentos/gmx_ISA_project/testes_arquivos_primeiros/gmx_ISA_testes/testes_qm_xtb/QM_analysis/QM_FRAMES_CAPPED/frame_3000ps/ligand_isolated_3000ps.xyz --gfn 2 --alpb water --chrg 1 --etemp 1500 --cycles 1000
          coordinate file            : /home/antonio_mesquita/Documentos/gmx_ISA_project/testes_arquivos_primeiros/gmx_ISA_testes/testes_qm_xtb/QM_analysis/QM_FRAMES_CAPPED/frame_3000ps/ligand_isolated_3000ps.xyz
          omp threads                :                    16


           -------------------------------------------------
          |                 G F N 2 - x T B                 |
           -------------------------------------------------

        Reference                      10.1021/acs.jctc.8b01176
      * Hamiltonian:
        H0-scaling (s, p, d)           1.850000    2.230000    2.230000
        zeta-weighting                 0.500000
      * Dispersion:
        s8                             2.700000
        a1                             0.520000
        a2                             5.000000
        s9                             5.000000
      * Repulsion:
        kExp                           1.500000    1.000000
        rExp                           1.000000
      * Coulomb:
        alpha                          2.000000
        third order                    shell-resolved
        anisotropic                    true
        a3                             3.000000
        a5                             4.000000
        cn-shift                       1.200000
        cn-exp                         4.000000
        max-rad                        5.000000

      * Solvation model:               ALPB
        Solvent                        water
        Parameter file                 internal GFN2-xTB/ALPB
        Dielectric constant                8.0200E+01
        Reference state                gsolv [1 M gas/solution]
        Free energy shift                  1.0808E-03 Eh       6.7819E-01 kcal/mol
        Temperature                        2.9815E+02 K
        Density                            1.0000E+00 kg/L
        Solvent mass                       1.8000E+01 g/mol
        Interaction kernel             P16
        Born radius scaling (c1)           1.4744E+00
        Born radii integrator          GBOBC
        Born offset                        0.0000E+00 a0       0.0000E+00 AA
        H-bond correction              true
        Ion screening                  false
        Surface tension                    1.0000E-05 Eh       1.5569E+01 dyn/cm
        Grid points                               230 per atom

          ...................................................
          :                      SETUP                      :
          :.................................................:
          :  # basis functions                 167          :
          :  # atomic orbitals                 165          :
          :  # shells                           93          :
          :  # electrons                       170          :
          :  max. iterations                   250          :
          :  Hamiltonian                  GFN2-xTB          :
          :  restarted?                      false          :
          :  GBSA solvation                   true          :
          :  PC potential                    false          :
          :  electronic temp.         1500.0000000     K    :
          :  accuracy                    1.0000000          :
          :  -> integral cutoff          0.2500000E+02      :
          :  -> integral neglect         0.1000000E-07      :
          :  -> SCF convergence          0.1000000E-05 Eh   :
          :  -> wf. convergence          0.1000000E-03 e    :
          :  Broyden damping             0.4000000          :
          :  net charge                          1          :
          :  unpaired electrons                  0          :
          ...................................................

 iter      E             dE          RMSdq      gap      omega  full diag
   1    -96.2423901 -0.962424E+02  0.491E+00    0.97       0.0  T
   2    -96.2818042 -0.394141E-01  0.350E+00    0.23       1.0  T
   3    -96.3325329 -0.507286E-01  0.264E+00    1.64       1.0  T
   4    -96.4195916 -0.870587E-01  0.138E+00    0.73       1.0  T
   5    -96.4038358  0.157558E-01  0.112E+00    0.99       1.0  T
   6    -96.4416724 -0.378365E-01  0.209E-01    0.41       1.0  T
   7    -96.4419697 -0.297380E-03  0.988E-02    0.38       1.0  T
   8    -96.4420686 -0.988411E-04  0.540E-02    0.39       1.0  T
   9    -96.4420890 -0.204382E-04  0.317E-02    0.40       1.0  T
  10    -96.4421055 -0.165174E-04  0.117E-02    0.39       1.1  T
  11    -96.4421063 -0.786303E-06  0.651E-03    0.39       2.0  T
  12    -96.4421067 -0.348215E-06  0.528E-03    0.39       2.5  T
  13    -96.4421071 -0.470485E-06  0.210E-03    0.39       6.2  T
  14    -96.4421072 -0.947540E-07  0.691E-04    0.39      18.8  T
  15    -96.4421072 -0.543977E-08  0.229E-04    0.39      56.7  T

   *** convergence criteria satisfied after 15 iterations ***

         #    Occupation            Energy/Eh            Energy/eV
      -------------------------------------------------------------
         1        2.0000           -0.8006025             -21.7855
       ...           ...                  ...                  ...
        79        1.9991           -0.4293682             -11.6837
        80        1.9977           -0.4248266             -11.5601
        81        1.9964           -0.4227020             -11.5023
        82        1.9932           -0.4196309             -11.4187
        83        1.9907           -0.4181176             -11.3776
        84        1.9852           -0.4159121             -11.3175
        85        1.6561           -0.4000996             -10.8873 (HOMO)
        86        0.3818           -0.3857730             -10.4974 (LUMO)
        87                         -0.2835913              -7.7169
        88                         -0.2677165              -7.2849
        89                         -0.2533000              -6.8926
        90                         -0.2457135              -6.6862
       ...                                ...                  ...
       165                          1.0538478              28.6767
      -------------------------------------------------------------
                  HL-Gap            0.0143266 Eh            0.3898 eV
             Fermi-level           -0.3926331 Eh          -10.6841 eV

 SCC (total)                   0 d,  0 h,  0 min,  0.312 sec
 SCC setup                      ...        0 min,  0.001 sec (  0.313%)
 Dispersion                     ...        0 min,  0.003 sec (  0.903%)
 classical contributions        ...        0 min,  0.000 sec (  0.040%)
 integral evaluation            ...        0 min,  0.008 sec (  2.634%)
 iterations                     ...        0 min,  0.255 sec ( 81.708%)
 molecular gradient             ...        0 min,  0.031 sec ( 10.069%)
 printout                       ...        0 min,  0.014 sec (  4.325%)

         :::::::::::::::::::::::::::::::::::::::::::::::::::::
         ::                     SUMMARY                     ::
         :::::::::::::::::::::::::::::::::::::::::::::::::::::
         :: total energy             -95.290155249531 Eh    ::
         :: total w/o Gsasa/hb       -95.286513369094 Eh    ::
         :: gradient norm              0.149386600213 Eh/a0 ::
         :: HOMO-LUMO gap              0.389847159274 eV    ::
         ::.................................................::
         :: SCC energy               -96.441315785711 Eh    ::
         :: -> isotropic ES            0.246892226774 Eh    ::
         :: -> anisotropic ES         -0.026493064777 Eh    ::
         :: -> anisotropic XC          0.040214318337 Eh    ::
         :: -> dispersion             -0.068102870518 Eh    ::
         :: -> Gsolv                  -0.097326448329 Eh    ::
         ::    -> Gelec               -0.093684567892 Eh    ::
         ::    -> Gsasa                0.003687232919 Eh    ::
         ::    -> Ghb                 -0.008409873054 Eh    ::
         ::    -> Gshift               0.001080759698 Eh    ::
         :: repulsion energy           1.151160536180 Eh    ::
         :: add. restraining           0.000000000000 Eh    ::
         :: total charge               1.000000000243 e     ::
         :::::::::::::::::::::::::::::::::::::::::::::::::::::

           -------------------------------------------------
          |                Property Printout                |
           -------------------------------------------------

    * Orbital Energies and Occupations

         #    Occupation            Energy/Eh            Energy/eV
      -------------------------------------------------------------
         1        2.0000           -0.8006025             -21.7855
       ...           ...                  ...                  ...
        73        2.0000           -0.4578915             -12.4599
        74        2.0000           -0.4512227             -12.2784
        75        2.0000           -0.4461353             -12.1400
        76        2.0000           -0.4453364             -12.1182
        77        2.0000           -0.4433701             -12.0647
        78        1.9998           -0.4362953             -11.8722
        79        1.9991           -0.4293682             -11.6837
        80        1.9977           -0.4248266             -11.5601
        81        1.9964           -0.4227020             -11.5023
        82        1.9932           -0.4196309             -11.4187
        83        1.9907           -0.4181176             -11.3776
        84        1.9852           -0.4159121             -11.3175
        85        1.6561           -0.4000996             -10.8873 (HOMO)
        86        0.3818           -0.3857730             -10.4974 (LUMO)
        87                         -0.2835913              -7.7169
        88                         -0.2677165              -7.2849
        89                         -0.2533000              -6.8926
        90                         -0.2457135              -6.6862
        91                         -0.2426483              -6.6028
        92                         -0.2394793              -6.5166
        93                         -0.2309176              -6.2836
        94                         -0.1815457              -4.9401
        95                         -0.1719301              -4.6785
        96                         -0.1560498              -4.2463
       ...                                ...                  ...
       165                          1.0538478              28.6767
      -------------------------------------------------------------
                  HL-Gap            0.0143266 Eh            0.3898 eV
             Fermi-level           -0.3926331 Eh          -10.6841 eV

     #   Z          covCN         q      C6AA      α(0)
     1   6 C        2.743     0.285    22.164     7.708
     2   7 N        2.688    -0.065    22.509     7.046
     3   6 C        2.875     0.098    25.830     8.332
     4   6 C        3.682     0.064    19.710     6.357
     5   6 C        3.807    -0.080    22.013     6.679
     6   6 C        2.960     0.037    27.179     8.551
     7   6 C        2.926    -0.035    28.860     8.810
     8   6 C        2.906    -0.030    28.744     8.791
     9   6 C        2.912    -0.027    28.672     8.780
    10   6 C        2.909    -0.027    28.669     8.780
    11   6 C        2.925    -0.035    28.862     8.810
    12   8 O        1.702    -0.244    18.036     5.734
    13   8 O        0.857    -0.424    22.175     6.314
    14   6 C        2.703     0.351    21.043     7.508
    15   6 C        3.746    -0.133    23.129     6.860
    16   6 C        3.818    -0.002    20.601     6.460
    17   8 O        0.862    -0.396    21.604     6.232
    18   6 C        3.788    -0.051    21.500     6.604
    19  16 S        1.965     0.014   140.498    19.950
    20   6 C        3.792    -0.066    21.779     6.646
    21   6 C        3.839     0.028    20.081     6.375
    22   7 N        2.729    -0.256    26.641     7.666
    23  16 S        3.775     1.148   102.520    17.041
    24   6 C        2.954    -0.088    30.202     9.014
    25   6 C        2.945    -0.032    28.801     8.802
    26   6 C        2.915    -0.036    28.897     8.815
    27   6 C        2.969     0.042    27.065     8.533
    28   6 C        2.910    -0.034    28.847     8.807
    29   6 C        2.951    -0.029    28.729     8.791
    30   8 O        0.859    -0.653    27.451     7.025
    31   8 O        0.859    -0.643    27.201     6.993
    32   6 C        3.755    -0.140    23.255     6.876
    33   1 H        0.861     0.272     0.804     1.404
    34   1 H        0.924     0.089     1.891     2.151
    35   1 H        0.924     0.084     1.942     2.179
    36   1 H        0.925     0.130     1.534     1.937
    37   1 H        0.924     0.120     1.613     1.986
    38   1 H        0.926     0.050     2.316     2.380
    39   1 H        0.924     0.059     2.208     2.324
    40   1 H        0.925     0.059     2.212     2.326
    41   1 H        0.925     0.062     2.171     2.304
    42   1 H        0.924     0.072     2.066     2.248
    43   1 H        0.923     0.065     2.139     2.287
    44   1 H        0.923     0.066     2.135     2.285
    45   1 H        0.925     0.068     2.111     2.272
    46   1 H        0.923     0.066     2.133     2.284
    47   1 H        0.923     0.084     1.943     2.180
    48   1 H        0.923     0.110     1.698     2.038
    49   1 H        0.924     0.116     1.645     2.006
    50   1 H        0.924     0.124     1.585     1.969
    51   1 H        0.924     0.123     1.592     1.973
    52   1 H        0.923     0.122     1.597     1.977
    53   1 H        0.925     0.074     2.041     2.234
    54   1 H        0.925     0.091     1.865     2.136
    55   1 H        0.925     0.081     1.965     2.192
    56   1 H        0.925     0.059     2.215     2.327
    57   1 H        0.924     0.078     1.997     2.210
    58   1 H        0.924     0.067     2.115     2.274
    59   1 H        0.923     0.071     2.079     2.255

 Mol. C6AA /au·bohr⁶  :      43357.151512
 Mol. C8AA /au·bohr⁸  :    1117044.250074
 Mol. α(0) /au        :        323.828215


Wiberg/Mayer (AO) data.
largest (>0.10) Wiberg bond orders for each atom

 ---------------------------------------------------------------------------
     #   Z sym  total        # sym  WBO       # sym  WBO       # sym  WBO
 ---------------------------------------------------------------------------
     1   6 C    3.890 --    17 O    1.751     2 N    1.120    21 C    0.943
     2   7 N    3.545 --     3 C    1.315     1 C    1.120    33 H    0.864
                            17 O    0.102
     3   6 C    3.662 --     2 N    1.315     5 C    1.058    14 C    1.025
     4   6 C    3.901 --    15 C    1.014    35 H    0.962    34 H    0.959
                            12 O    0.925
     5   6 C    3.944 --     3 C    1.058    36 H    0.940    37 H    0.930
                             6 C    0.925
     6   6 C    3.943 --     7 C    1.415    11 C    1.381     5 C    0.925
     7   6 C    3.974 --     8 C    1.423     6 C    1.415    38 H    0.967
                            10 C    0.107
     8   6 C    3.971 --     9 C    1.435     7 C    1.423    39 H    0.967
                            11 C    0.107
     9   6 C    3.965 --     8 C    1.435    10 C    1.425    40 H    0.966
    10   6 C    3.972 --    11 C    1.443     9 C    1.425    41 H    0.966
                             7 C    0.107
    11   6 C    3.967 --    10 C    1.443     6 C    1.381    42 H    0.960
                             8 C    0.107
    12   8 O    2.314 --    14 C    1.139     4 C    0.925    13 O    0.189
    13   8 O    1.973 --    14 C    1.674    12 O    0.189
    14   6 C    3.909 --    13 O    1.674    12 O    1.139     3 C    1.025
    15   6 C    3.984 --     4 C    1.014    44 H    0.985    45 H    0.984
                            43 H    0.980
    16   6 C    3.950 --    18 C    1.000    22 N    0.984    46 H    0.963
                            47 H    0.955
    17   8 O    2.004 --     1 C    1.751     2 N    0.102
    18   6 C    3.944 --    16 C    1.000    19 S    0.991    49 H    0.958
                            48 H    0.952
    19  16 S    2.112 --    20 C    0.997    18 C    0.991
    20   6 C    3.947 --    19 S    0.997    21 C    0.984    51 H    0.957
                            50 H    0.952
    21   6 C    3.956 --    22 N    0.988    20 C    0.984     1 C    0.943
                            52 H    0.917
    22   7 N    3.191 --    21 C    0.988    16 C    0.984    23 S    0.893
    23  16 S    4.827 --    31 O    1.554    30 O    1.547    22 N    0.893
                            24 C    0.736
    24   6 C    3.935 --    29 C    1.404    25 C    1.401    23 S    0.736
    25   6 C    3.980 --    26 C    1.448    24 C    1.401    53 H    0.963
                            28 C    0.105
    26   6 C    3.979 --    25 C    1.448    27 C    1.397    54 H    0.961
                            29 C    0.104
    27   6 C    3.979 --    28 C    1.403    26 C    1.397    32 C    1.030
    28   6 C    3.981 --    29 C    1.445    27 C    1.403    55 H    0.962
                            25 C    0.105
    29   6 C    3.984 --    28 C    1.445    24 C    1.404    56 H    0.965
                            26 C    0.104
    30   8 O    1.843 --    23 S    1.547    31 O    0.103
    31   8 O    1.847 --    23 S    1.554    30 O    0.103
    32   6 C    3.985 --    27 C    1.030    58 H    0.980    59 H    0.971
                            57 H    0.959
    33   1 H    0.925 --     2 N    0.864
    34   1 H    0.989 --     4 C    0.959
    35   1 H    0.989 --     4 C    0.962
    36   1 H    0.979 --     5 C    0.940
    37   1 H    0.978 --     5 C    0.930
    38   1 H    0.997 --     7 C    0.967
    39   1 H    0.994 --     8 C    0.967
    40   1 H    0.992 --     9 C    0.966
    41   1 H    0.995 --    10 C    0.966
    42   1 H    0.994 --    11 C    0.960
    43   1 H    0.995 --    15 C    0.980
    44   1 H    0.995 --    15 C    0.985
    45   1 H    0.995 --    15 C    0.984
    46   1 H    0.988 --    16 C    0.963
    47   1 H    0.993 --    16 C    0.955
    48   1 H    0.971 --    18 C    0.952
    49   1 H    0.985 --    18 C    0.958
    50   1 H    0.971 --    20 C    0.952
    51   1 H    0.984 --    20 C    0.957
    52   1 H    0.983 --    21 C    0.917
    53   1 H    0.994 --    25 C    0.963
    54   1 H    0.991 --    26 C    0.961
    55   1 H    0.992 --    28 C    0.962
    56   1 H    0.996 --    29 C    0.965
    57   1 H    0.992 --    32 C    0.959
    58   1 H    0.995 --    32 C    0.980
    59   1 H    0.994 --    32 C    0.971
 ---------------------------------------------------------------------------

Topologies differ in total number of bonds
Writing topology from bond orders to xtbtopo.mol

molecular dipole:
                 x           y           z       tot (Debye)
 q only:       45.499      15.273     103.355
   full:       45.908      14.969     103.359     289.968
molecular quadrupole (traceless):
                xx          xy          yy          xz          yz          zz
 q only:    -3450.027    1102.771   -6078.261    7076.804    2425.171    9528.288
  q+dip:    -3410.209    1085.693   -6105.846    7139.009    2372.489    9516.055
   full:    -3407.937    1085.818   -6107.141    7137.907    2372.243    9515.078


           -------------------------------------------------
          | TOTAL ENERGY              -95.290155249531 Eh   |
          | GRADIENT NORM               0.149386600213 Eh/α |
          | HOMO-LUMO GAP               0.389847159274 eV   |
           -------------------------------------------------

------------------------------------------------------------------------
Note: The following floating-point exceptions are signalling: IEEE_UNDERFLOW_FLAG IEEE_DENORMAL
normal termination of xtb
 * finished run on 2026/01/05 at 09:07:09.324     
------------------------------------------------------------------------
 total:
 * wall-time:     0 d,  0 h,  0 min,  0.338 sec
 *  cpu-time:     0 d,  0 h,  0 min,  5.023 sec
 * ratio c/w:    14.867 speedup
 SCF:
 * wall-time:     0 d,  0 h,  0 min,  0.313 sec
 *  cpu-time:     0 d,  0 h,  0 min,  4.662 sec
 * ratio c/w:    14.896 speedup

