      -----------------------------------------------------------      
     |                   =====================                   |     
     |                           x T B                           |     
     |                   =====================                   |     
     |                         S. Grimme                         |     
     |          Mulliken Center for Theoretical Chemistry        |     
     |                    University of Bonn                     |     
      -----------------------------------------------------------      

   * xtb version 6.7.1 (edcfbbe) compiled by 'conda@c0858423619e' on 2025-09-04

   xtb is free software: you can redistribute it and/or modify it under
   the terms of the GNU Lesser General Public License as published by
   the Free Software Foundation, either version 3 of the License, or
   (at your option) any later version.
   
   xtb is distributed in the hope that it will be useful,
   but WITHOUT ANY WARRANTY; without even the implied warranty of
   MERCHANTABILITY or FITNESS FOR A PARTICULAR PURPOSE.  See the
   GNU Lesser General Public License for more details.
   
   Cite this work as:
   * C. Bannwarth, E. Caldeweyher, S. Ehlert, A. Hansen, P. Pracht,
     J. Seibert, S. Spicher, S. Grimme, WIREs Comput. Mol. Sci., 2020, 11,
     e01493. DOI: 10.1002/wcms.1493
   
   for GFN2-xTB:
   * C. Bannwarth, S. Ehlert and S. Grimme., J. Chem. Theory Comput., 2019,
     15, 1652-1671. DOI: 10.1021/acs.jctc.8b01176
   for GFN1-xTB:
   * S. Grimme, C. Bannwarth, P. Shushkov, J. Chem. Theory Comput., 2017,
     13, 1989-2009. DOI: 10.1021/acs.jctc.7b00118
   for GFN0-xTB:
   * P. Pracht, E. Caldeweyher, S. Ehlert, S. Grimme, ChemRxiv, 2019, preprint.
     DOI: 10.26434/chemrxiv.8326202.v1
   for GFN-FF:
   * S. Spicher and S. Grimme, Angew. Chem. Int. Ed., 2020, 59, 15665-15673.
     DOI: 10.1002/anie.202004239
   
   for ALPB and GBSA implicit solvation:
   * S. Ehlert, M. Stahn, S. Spicher, S. Grimme, J. Chem. Theory Comput.,
     2021, 17, 4250-4261. DOI: 10.1021/acs.jctc.1c00471
   
   for ddCOSMO and CPCM-X implicit solvation:
   * M. Stahn, S. Ehlert, S. Grimme, J. Phys. Chem. A,
     2023, XX, XXXX-XXXX. DOI: 10.1021/acs.jpca.3c04382
   
   for DFT-D4:
   * E. Caldeweyher, C. Bannwarth and S. Grimme, J. Chem. Phys., 2017,
     147, 034112. DOI: 10.1063/1.4993215
   * E. Caldeweyher, S. Ehlert, A. Hansen, H. Neugebauer, S. Spicher,
     C. Bannwarth and S. Grimme, J. Chem. Phys., 2019, 150, 154122.
     DOI: 10.1063/1.5090222
   * E. Caldeweyher, J.-M. Mewes, S. Ehlert and S. Grimme, Phys. Chem. Chem. Phys.
     2020, 22, 8499-8512. DOI: 10.1039/D0CP00502A
   
   for sTDA-xTB:
   * S. Grimme and C. Bannwarth, J. Chem. Phys., 2016, 145, 054103.
     DOI: 10.1063/1.4959605
   
   in the mass-spec context:
   * V. Asgeirsson, C. Bauer and S. Grimme, Chem. Sci., 2017, 8, 4879.
     DOI: 10.1039/c7sc00601b
   * J. Koopman and S. Grimme, ACS Omega 2019, 4, 12, 15120-15133.
     DOI: 10.1021/acsomega.9b02011
   
   for metadynamics refer to:
   * S. Grimme, J. Chem. Theory Comput., 2019, 155, 2847-2862
     DOI: 10.1021/acs.jctc.9b00143
   
   for SPH calculations refer to:
   * S. Spicher and S. Grimme, J. Chem. Theory Comput., 2021, 17, 1701-1714
     DOI: 10.1021/acs.jctc.0c01306
   
   for ONIOM refer to:
   * C. Plett, A. Katbashev, S. Ehlert, S. Grimme, M. Bursch,
     Phys. Chem. Chem. Phys., 2023, 25, 17860-17868. DOI: 10.1039/D3CP02178E
   
   for DIPRO refer to:
   * J. Kohn, N. Gildemeister, S. Grimme, D. Fazzi, A. Hansen,
     J. Chem. Phys., 2023, just accepted.
   
   for PTB refer to:
   * S. Grimme, M. Mueller, A. Hansen, J. Chem. Phys., 2023, 158, 124111.
     DOI: 10.1063/5.0137838
   
   with help from (in alphabetical order)
   P. Atkinson, C. Bannwarth, F. Bohle, G. Brandenburg, E. Caldeweyher
   M. Checinski, S. Dohm, S. Ehlert, S. Ehrlich, I. Gerasimov, C. Hölzer
   A. Katbashev, J. Kohn, J. Koopman, C. Lavigne, S. Lehtola, F. März, M. Müller,
   F. Musil, H. Neugebauer, J. Pisarek, C. Plett, P. Pracht, F. Pultar,
   J. Seibert, P. Shushkov, S. Spicher, M. Stahn, M. Steiner, T. Strunk,
   J. Stückrath, T. Rose, and J. Unsleber
   
 * started run on 2026/01/05 at 09:07:04.870     
   ID    Z sym.   atoms
    1    6 C      1, 3-11, 14-16, 18, 20, 21, 24-29, 32
    2    7 N      2, 22
    3    8 O      12, 13, 17, 30, 31
    4   16 S      19, 23
    5    1 H      33-59

           -------------------------------------------------
          |                Calculation Setup                |
           -------------------------------------------------

          program call               : xtb /home/antonio_mesquita/Documentos/gmx_ISA_project/testes_arquivos_primeiros/gmx_ISA_testes/testes_qm_xtb/QM_analysis/QM_FRAMES_CAPPED/frame_2800ps/ligand_isolated_2800ps.xyz --gfn 2 --alpb water --chrg 1 --etemp 1500 --cycles 1000
          coordinate file            : /home/antonio_mesquita/Documentos/gmx_ISA_project/testes_arquivos_primeiros/gmx_ISA_testes/testes_qm_xtb/QM_analysis/QM_FRAMES_CAPPED/frame_2800ps/ligand_isolated_2800ps.xyz
          omp threads                :                    16


           -------------------------------------------------
          |                 G F N 2 - x T B                 |
           -------------------------------------------------

        Reference                      10.1021/acs.jctc.8b01176
      * Hamiltonian:
        H0-scaling (s, p, d)           1.850000    2.230000    2.230000
        zeta-weighting                 0.500000
      * Dispersion:
        s8                             2.700000
        a1                             0.520000
        a2                             5.000000
        s9                             5.000000
      * Repulsion:
        kExp                           1.500000    1.000000
        rExp                           1.000000
      * Coulomb:
        alpha                          2.000000
        third order                    shell-resolved
        anisotropic                    true
        a3                             3.000000
        a5                             4.000000
        cn-shift                       1.200000
        cn-exp                         4.000000
        max-rad                        5.000000

      * Solvation model:               ALPB
        Solvent                        water
        Parameter file                 internal GFN2-xTB/ALPB
        Dielectric constant                8.0200E+01
        Reference state                gsolv [1 M gas/solution]
        Free energy shift                  1.0808E-03 Eh       6.7819E-01 kcal/mol
        Temperature                        2.9815E+02 K
        Density                            1.0000E+00 kg/L
        Solvent mass                       1.8000E+01 g/mol
        Interaction kernel             P16
        Born radius scaling (c1)           1.4744E+00
        Born radii integrator          GBOBC
        Born offset                        0.0000E+00 a0       0.0000E+00 AA
        H-bond correction              true
        Ion screening                  false
        Surface tension                    1.0000E-05 Eh       1.5569E+01 dyn/cm
        Grid points                               230 per atom

          ...................................................
          :                      SETUP                      :
          :.................................................:
          :  # basis functions                 167          :
          :  # atomic orbitals                 165          :
          :  # shells                           93          :
          :  # electrons                       170          :
          :  max. iterations                   250          :
          :  Hamiltonian                  GFN2-xTB          :
          :  restarted?                      false          :
          :  GBSA solvation                   true          :
          :  PC potential                    false          :
          :  electronic temp.         1500.0000000     K    :
          :  accuracy                    1.0000000          :
          :  -> integral cutoff          0.2500000E+02      :
          :  -> integral neglect         0.1000000E-07      :
          :  -> SCF convergence          0.1000000E-05 Eh   :
          :  -> wf. convergence          0.1000000E-03 e    :
          :  Broyden damping             0.4000000          :
          :  net charge                          1          :
          :  unpaired electrons                  0          :
          ...................................................

 iter      E             dE          RMSdq      gap      omega  full diag
   1    -96.2268501 -0.962269E+02  0.503E+00    1.03       0.0  T
   2    -96.2483395 -0.214893E-01  0.368E+00    0.31       1.0  T
   3    -96.3219273 -0.735878E-01  0.275E+00    1.50       1.0  T
   4    -96.4105072 -0.885799E-01  0.147E+00    0.59       1.0  T
   5    -96.3936015  0.169057E-01  0.122E+00    1.03       1.0  T
   6    -96.4352354 -0.416340E-01  0.319E-01    0.43       1.0  T
   7    -96.4359130 -0.677551E-03  0.185E-01    0.32       1.0  T
   8    -96.4362612 -0.348252E-03  0.125E-01    0.40       1.0  T
   9    -96.4364774 -0.216175E-03  0.528E-02    0.35       1.0  T
  10    -96.4364984 -0.209800E-04  0.440E-02    0.38       1.0  T
  11    -96.4365337 -0.352546E-04  0.101E-02    0.37       1.3  T
  12    -96.4365351 -0.149204E-05  0.527E-03    0.37       2.5  T
  13    -96.4365357 -0.567442E-06  0.211E-03    0.37       6.2  T
  14    -96.4365358 -0.666949E-07  0.700E-04    0.37      18.6  T
  15    -96.4365358 -0.551074E-08  0.336E-04    0.37      38.8  T

   *** convergence criteria satisfied after 15 iterations ***

         #    Occupation            Energy/Eh            Energy/eV
      -------------------------------------------------------------
         1        2.0000           -0.7976416             -21.7049
       ...           ...                  ...                  ...
        79        1.9993           -0.4319379             -11.7536
        80        1.9963           -0.4242701             -11.5450
        81        1.9948           -0.4226646             -11.5013
        82        1.9881           -0.4187111             -11.3937
        83        1.9756           -0.4152754             -11.3002
        84        1.9568           -0.4125162             -11.2251
        85        1.6555           -0.4018594             -10.9352 (HOMO)
        86        0.4344           -0.3883134             -10.5665 (LUMO)
        87                         -0.2827628              -7.6944
        88                         -0.2656885              -7.2298
        89                         -0.2531144              -6.8876
        90                         -0.2452642              -6.6740
       ...                                ...                  ...
       165                          1.0664548              29.0197
      -------------------------------------------------------------
                  HL-Gap            0.0135460 Eh            0.3686 eV
             Fermi-level           -0.3944035 Eh          -10.7323 eV

 SCC (total)                   0 d,  0 h,  0 min,  0.186 sec
 SCC setup                      ...        0 min,  0.001 sec (  0.735%)
 Dispersion                     ...        0 min,  0.001 sec (  0.683%)
 classical contributions        ...        0 min,  0.000 sec (  0.094%)
 integral evaluation            ...        0 min,  0.008 sec (  4.386%)
 iterations                     ...        0 min,  0.147 sec ( 79.278%)
 molecular gradient             ...        0 min,  0.027 sec ( 14.676%)
 printout                       ...        0 min,  0.000 sec (  0.137%)

         :::::::::::::::::::::::::::::::::::::::::::::::::::::
         ::                     SUMMARY                     ::
         :::::::::::::::::::::::::::::::::::::::::::::::::::::
         :: total energy             -95.287063150183 Eh    ::
         :: total w/o Gsasa/hb       -95.282486270127 Eh    ::
         :: gradient norm              0.150437202465 Eh/a0 ::
         :: HOMO-LUMO gap              0.368606416753 eV    ::
         ::.................................................::
         :: SCC energy               -96.435321780131 Eh    ::
         :: -> isotropic ES            0.248442401033 Eh    ::
         :: -> anisotropic ES         -0.026240111263 Eh    ::
         :: -> anisotropic XC          0.041677910631 Eh    ::
         :: -> dispersion             -0.069233147199 Eh    ::
         :: -> Gsolv                  -0.098560822374 Eh    ::
         ::    -> Gelec               -0.093983942318 Eh    ::
         ::    -> Gsasa                0.002706964012 Eh    ::
         ::    -> Ghb                 -0.008364603766 Eh    ::
         ::    -> Gshift               0.001080759698 Eh    ::
         :: repulsion energy           1.148258629948 Eh    ::
         :: add. restraining           0.000000000000 Eh    ::
         :: total charge               1.000000000000 e     ::
         :::::::::::::::::::::::::::::::::::::::::::::::::::::

           -------------------------------------------------
          |                Property Printout                |
           -------------------------------------------------

    * Orbital Energies and Occupations

         #    Occupation            Energy/Eh            Energy/eV
      -------------------------------------------------------------
         1        2.0000           -0.7976416             -21.7049
       ...           ...                  ...                  ...
        73        2.0000           -0.4594232             -12.5015
        74        2.0000           -0.4553111             -12.3896
        75        2.0000           -0.4466003             -12.1526
        76        2.0000           -0.4452755             -12.1166
        77        1.9999           -0.4421402             -12.0312
        78        1.9995           -0.4338186             -11.8048
        79        1.9993           -0.4319379             -11.7536
        80        1.9963           -0.4242701             -11.5450
        81        1.9948           -0.4226646             -11.5013
        82        1.9881           -0.4187111             -11.3937
        83        1.9756           -0.4152754             -11.3002
        84        1.9568           -0.4125162             -11.2251
        85        1.6555           -0.4018594             -10.9352 (HOMO)
        86        0.4344           -0.3883134             -10.5665 (LUMO)
        87                         -0.2827628              -7.6944
        88                         -0.2656885              -7.2298
        89                         -0.2531144              -6.8876
        90                         -0.2452642              -6.6740
        91                         -0.2437802              -6.6336
        92                         -0.2420876              -6.5875
        93                         -0.2340403              -6.3686
        94                         -0.1784171              -4.8550
        95                         -0.1696533              -4.6165
        96                         -0.1494411              -4.0665
       ...                                ...                  ...
       165                          1.0664548              29.0197
      -------------------------------------------------------------
                  HL-Gap            0.0135460 Eh            0.3686 eV
             Fermi-level           -0.3944035 Eh          -10.7323 eV

     #   Z          covCN         q      C6AA      α(0)
     1   6 C        2.745     0.280    22.256     7.725
     2   7 N        2.702    -0.080    22.789     7.090
     3   6 C        2.869     0.097    25.845     8.334
     4   6 C        3.683     0.062    19.740     6.362
     5   6 C        3.808    -0.082    22.067     6.687
     6   6 C        2.967     0.023    27.499     8.602
     7   6 C        2.909    -0.038    28.951     8.823
     8   6 C        2.924    -0.028    28.702     8.786
     9   6 C        2.901    -0.030    28.737     8.790
    10   6 C        2.923    -0.026    28.642     8.776
    11   6 C        2.907    -0.042    29.043     8.837
    12   8 O        1.703    -0.245    18.054     5.737
    13   8 O        0.857    -0.413    21.937     6.280
    14   6 C        2.720     0.357    20.936     7.490
    15   6 C        3.745    -0.134    23.146     6.863
    16   6 C        3.902    -0.000    20.531     6.441
    17   8 O        0.858    -0.394    21.551     6.224
    18   6 C        3.789    -0.055    21.583     6.616
    19  16 S        1.980     0.022   140.172    19.927
    20   6 C        3.790    -0.075    21.953     6.673
    21   6 C        3.858     0.021    20.191     6.390
    22   7 N        2.729    -0.256    26.647     7.667
    23  16 S        3.853     1.144   102.620    17.050
    24   6 C        2.955    -0.082    30.054     8.992
    25   6 C        2.959    -0.033    28.830     8.807
    26   6 C        2.917    -0.037    28.916     8.818
    27   6 C        2.965     0.040    27.103     8.539
    28   6 C        2.911    -0.038    28.934     8.820
    29   6 C        2.941    -0.030    28.750     8.794
    30   8 O        0.859    -0.661    27.662     7.052
    31   8 O        0.859    -0.641    27.154     6.987
    32   6 C        3.755    -0.142    23.287     6.881
    33   1 H        0.861     0.283     0.765     1.370
    34   1 H        0.924     0.075     2.031     2.229
    35   1 H        0.923     0.093     1.852     2.128
    36   1 H        0.924     0.125     1.572     1.961
    37   1 H        0.925     0.156     1.351     1.817
    38   1 H        0.924     0.054     2.265     2.354
    39   1 H        0.926     0.044     2.400     2.423
    40   1 H        0.926     0.062     2.177     2.307
    41   1 H        0.925     0.060     2.205     2.322
    42   1 H        0.925     0.066     2.125     2.279
    43   1 H        0.923     0.066     2.131     2.283
    44   1 H        0.925     0.072     2.067     2.248
    45   1 H        0.923     0.065     2.143     2.289
    46   1 H        0.924     0.055     2.256     2.349
    47   1 H        0.923     0.076     2.016     2.221
    48   1 H        0.923     0.123     1.591     1.973
    49   1 H        0.925     0.113     1.673     2.023
    50   1 H        0.924     0.138     1.473     1.898
    51   1 H        0.924     0.128     1.547     1.945
    52   1 H        0.924     0.129     1.542     1.942
    53   1 H        0.925     0.073     2.056     2.242
    54   1 H        0.924     0.086     1.917     2.165
    55   1 H        0.924     0.082     1.960     2.189
    56   1 H        0.925     0.064     2.157     2.297
    57   1 H        0.924     0.081     1.967     2.194
    58   1 H        0.923     0.076     2.021     2.223
    59   1 H        0.925     0.071     2.073     2.251

 Mol. C6AA /au·bohr⁶  :      43347.026998
 Mol. C8AA /au·bohr⁸  :    1117271.568956
 Mol. α(0) /au        :        323.778428


Wiberg/Mayer (AO) data.
largest (>0.10) Wiberg bond orders for each atom

 ---------------------------------------------------------------------------
     #   Z sym  total        # sym  WBO       # sym  WBO       # sym  WBO
 ---------------------------------------------------------------------------
     1   6 C    3.896 --    17 O    1.745     2 N    1.126    21 C    0.948
     2   7 N    3.533 --     3 C    1.317     1 C    1.126    33 H    0.839
                            17 O    0.101
     3   6 C    3.632 --     2 N    1.317     5 C    1.075    14 C    1.025
     4   6 C    3.899 --    15 C    1.007    35 H    0.964    34 H    0.959
                            12 O    0.930
     5   6 C    3.952 --     3 C    1.075     6 C    0.950    36 H    0.942
                            37 H    0.887
     6   6 C    3.934 --    11 C    1.403     7 C    1.402     5 C    0.950
     7   6 C    3.963 --     8 C    1.435     6 C    1.402    38 H    0.964
                            10 C    0.106
     8   6 C    3.971 --     7 C    1.435     9 C    1.429    39 H    0.970
                            11 C    0.107
     9   6 C    3.961 --    10 C    1.432     8 C    1.429    40 H    0.968
    10   6 C    3.967 --    11 C    1.432     9 C    1.432    41 H    0.965
                             7 C    0.106
    11   6 C    3.965 --    10 C    1.432     6 C    1.403    42 H    0.965
                             8 C    0.107
    12   8 O    2.313 --    14 C    1.141     4 C    0.930    13 O    0.184
    13   8 O    1.981 --    14 C    1.666    12 O    0.184
    14   6 C    3.904 --    13 O    1.666    12 O    1.141     3 C    1.025
    15   6 C    3.980 --     4 C    1.007    44 H    0.985    45 H    0.981
                            43 H    0.979
    16   6 C    3.946 --    18 C    0.994    22 N    0.986    46 H    0.964
                            47 H    0.957
    17   8 O    2.009 --     1 C    1.745     2 N    0.101
    18   6 C    3.947 --    19 S    0.995    16 C    0.994    49 H    0.963
                            48 H    0.954
    19  16 S    2.120 --    20 C    0.997    18 C    0.995
    20   6 C    3.944 --    19 S    0.997    21 C    0.984    51 H    0.949
                            50 H    0.948
    21   6 C    3.955 --    22 N    0.986    20 C    0.984     1 C    0.948
                            52 H    0.910
    22   7 N    3.170 --    16 C    0.986    21 C    0.986    23 S    0.876
    23  16 S    4.825 --    31 O    1.569    30 O    1.545    22 N    0.876
                            24 C    0.731
    24   6 C    3.936 --    29 C    1.418    25 C    1.397    23 S    0.731
    25   6 C    3.979 --    26 C    1.449    24 C    1.397    53 H    0.964
                            28 C    0.107
    26   6 C    3.978 --    25 C    1.449    27 C    1.398    54 H    0.962
                            29 C    0.103
    27   6 C    3.976 --    28 C    1.401    26 C    1.398    32 C    1.031
    28   6 C    3.976 --    29 C    1.434    27 C    1.401    55 H    0.962
                            25 C    0.107
    29   6 C    3.981 --    28 C    1.434    24 C    1.418    56 H    0.964
                            26 C    0.103
    30   8 O    1.832 --    23 S    1.545
    31   8 O    1.851 --    23 S    1.569
    32   6 C    3.984 --    27 C    1.031    58 H    0.975    59 H    0.973
                            57 H    0.959
    33   1 H    0.918 --     2 N    0.839
    34   1 H    0.990 --     4 C    0.959
    35   1 H    0.990 --     4 C    0.964
    36   1 H    0.980 --     5 C    0.942
    37   1 H    0.951 --     5 C    0.887
    38   1 H    0.996 --     7 C    0.964
    39   1 H    0.996 --     8 C    0.970
    40   1 H    0.994 --     9 C    0.968
    41   1 H    0.994 --    10 C    0.965
    42   1 H    0.995 --    11 C    0.965
    43   1 H    0.994 --    15 C    0.979
    44   1 H    0.995 --    15 C    0.985
    45   1 H    0.996 --    15 C    0.981
    46   1 H    0.992 --    16 C    0.964
    47   1 H    0.993 --    16 C    0.957
    48   1 H    0.971 --    18 C    0.954
    49   1 H    0.987 --    18 C    0.963
    50   1 H    0.968 --    20 C    0.948
    51   1 H    0.982 --    20 C    0.949
    52   1 H    0.981 --    21 C    0.910
    53   1 H    0.994 --    25 C    0.964
    54   1 H    0.991 --    26 C    0.962
    55   1 H    0.992 --    28 C    0.962
    56   1 H    0.995 --    29 C    0.964
    57   1 H    0.991 --    32 C    0.959
    58   1 H    0.993 --    32 C    0.975
    59   1 H    0.993 --    32 C    0.973
 ---------------------------------------------------------------------------

Topologies differ in total number of bonds
Writing topology from bond orders to xtbtopo.mol

molecular dipole:
                 x           y           z       tot (Debye)
 q only:       38.229      14.200     101.468
   full:       38.637      13.784     101.384     277.989
molecular quadrupole (traceless):
                xx          xy          yy          xz          yz          zz
 q only:    -3786.026     864.092   -5708.520    5887.316    2186.897    9494.546
  q+dip:    -3744.555     846.739   -5720.802    5941.319    2118.154    9465.357
   full:    -3742.311     846.728   -5721.881    5940.246    2119.346    9464.192


           -------------------------------------------------
          | TOTAL ENERGY              -95.287063150183 Eh   |
          | GRADIENT NORM               0.150437202465 Eh/α |
          | HOMO-LUMO GAP               0.368606416753 eV   |
           -------------------------------------------------

------------------------------------------------------------------------
 * finished run on 2026/01/05 at 09:07:05.081     
Note: The following floating-point exceptions are signalling: IEEE_UNDERFLOW_FLAG IEEE_DENORMAL
normal termination of xtb
------------------------------------------------------------------------
 total:
 * wall-time:     0 d,  0 h,  0 min,  0.211 sec
 *  cpu-time:     0 d,  0 h,  0 min,  3.162 sec
 * ratio c/w:    14.983 speedup
 SCF:
 * wall-time:     0 d,  0 h,  0 min,  0.186 sec
 *  cpu-time:     0 d,  0 h,  0 min,  2.791 sec
 * ratio c/w:    14.993 speedup

