      -----------------------------------------------------------      
     |                   =====================                   |     
     |                           x T B                           |     
     |                   =====================                   |     
     |                         S. Grimme                         |     
     |          Mulliken Center for Theoretical Chemistry        |     
     |                    University of Bonn                     |     
      -----------------------------------------------------------      

   * xtb version 6.7.1 (edcfbbe) compiled by 'conda@c0858423619e' on 2025-09-04

   xtb is free software: you can redistribute it and/or modify it under
   the terms of the GNU Lesser General Public License as published by
   the Free Software Foundation, either version 3 of the License, or
   (at your option) any later version.
   
   xtb is distributed in the hope that it will be useful,
   but WITHOUT ANY WARRANTY; without even the implied warranty of
   MERCHANTABILITY or FITNESS FOR A PARTICULAR PURPOSE.  See the
   GNU Lesser General Public License for more details.
   
   Cite this work as:
   * C. Bannwarth, E. Caldeweyher, S. Ehlert, A. Hansen, P. Pracht,
     J. Seibert, S. Spicher, S. Grimme, WIREs Comput. Mol. Sci., 2020, 11,
     e01493. DOI: 10.1002/wcms.1493
   
   for GFN2-xTB:
   * C. Bannwarth, S. Ehlert and S. Grimme., J. Chem. Theory Comput., 2019,
     15, 1652-1671. DOI: 10.1021/acs.jctc.8b01176
   for GFN1-xTB:
   * S. Grimme, C. Bannwarth, P. Shushkov, J. Chem. Theory Comput., 2017,
     13, 1989-2009. DOI: 10.1021/acs.jctc.7b00118
   for GFN0-xTB:
   * P. Pracht, E. Caldeweyher, S. Ehlert, S. Grimme, ChemRxiv, 2019, preprint.
     DOI: 10.26434/chemrxiv.8326202.v1
   for GFN-FF:
   * S. Spicher and S. Grimme, Angew. Chem. Int. Ed., 2020, 59, 15665-15673.
     DOI: 10.1002/anie.202004239
   
   for ALPB and GBSA implicit solvation:
   * S. Ehlert, M. Stahn, S. Spicher, S. Grimme, J. Chem. Theory Comput.,
     2021, 17, 4250-4261. DOI: 10.1021/acs.jctc.1c00471
   
   for ddCOSMO and CPCM-X implicit solvation:
   * M. Stahn, S. Ehlert, S. Grimme, J. Phys. Chem. A,
     2023, XX, XXXX-XXXX. DOI: 10.1021/acs.jpca.3c04382
   
   for DFT-D4:
   * E. Caldeweyher, C. Bannwarth and S. Grimme, J. Chem. Phys., 2017,
     147, 034112. DOI: 10.1063/1.4993215
   * E. Caldeweyher, S. Ehlert, A. Hansen, H. Neugebauer, S. Spicher,
     C. Bannwarth and S. Grimme, J. Chem. Phys., 2019, 150, 154122.
     DOI: 10.1063/1.5090222
   * E. Caldeweyher, J.-M. Mewes, S. Ehlert and S. Grimme, Phys. Chem. Chem. Phys.
     2020, 22, 8499-8512. DOI: 10.1039/D0CP00502A
   
   for sTDA-xTB:
   * S. Grimme and C. Bannwarth, J. Chem. Phys., 2016, 145, 054103.
     DOI: 10.1063/1.4959605
   
   in the mass-spec context:
   * V. Asgeirsson, C. Bauer and S. Grimme, Chem. Sci., 2017, 8, 4879.
     DOI: 10.1039/c7sc00601b
   * J. Koopman and S. Grimme, ACS Omega 2019, 4, 12, 15120-15133.
     DOI: 10.1021/acsomega.9b02011
   
   for metadynamics refer to:
   * S. Grimme, J. Chem. Theory Comput., 2019, 155, 2847-2862
     DOI: 10.1021/acs.jctc.9b00143
   
   for SPH calculations refer to:
   * S. Spicher and S. Grimme, J. Chem. Theory Comput., 2021, 17, 1701-1714
     DOI: 10.1021/acs.jctc.0c01306
   
   for ONIOM refer to:
   * C. Plett, A. Katbashev, S. Ehlert, S. Grimme, M. Bursch,
     Phys. Chem. Chem. Phys., 2023, 25, 17860-17868. DOI: 10.1039/D3CP02178E
   
   for DIPRO refer to:
   * J. Kohn, N. Gildemeister, S. Grimme, D. Fazzi, A. Hansen,
     J. Chem. Phys., 2023, just accepted.
   
   for PTB refer to:
   * S. Grimme, M. Mueller, A. Hansen, J. Chem. Phys., 2023, 158, 124111.
     DOI: 10.1063/5.0137838
   
   with help from (in alphabetical order)
   P. Atkinson, C. Bannwarth, F. Bohle, G. Brandenburg, E. Caldeweyher
   M. Checinski, S. Dohm, S. Ehlert, S. Ehrlich, I. Gerasimov, C. Hölzer
   A. Katbashev, J. Kohn, J. Koopman, C. Lavigne, S. Lehtola, F. März, M. Müller,
   F. Musil, H. Neugebauer, J. Pisarek, C. Plett, P. Pracht, F. Pultar,
   J. Seibert, P. Shushkov, S. Spicher, M. Stahn, M. Steiner, T. Strunk,
   J. Stückrath, T. Rose, and J. Unsleber
   
 * started run on 2026/01/05 at 09:06:47.530     
   ID    Z sym.   atoms
    1    6 C      1, 3-11, 14-16, 18, 20, 21, 24-29, 32, 62, 64, 67, 68, 70,
                  72, 75, 77, 79, 83, 85, 88, 89, 91, 93, 95, 97, 99, 103,
                  105, 108, 111, 115, 117, 120, 123, 128, 135, 139, 141, 144,
                  145, 147, 149, 151, 153, 155, 159, 161, 164, 167, 170, 174,
                  176, 178, 182, 186, 190, 192, 194, 198, 201, 205, 209, 211,
                  214, 215, 217, 219, 222, 224, 226, 230, 232, 235, 237, 241,
                  243, 247, 249, 251, 255, 258, 262, 266, 268, 270, 274, 277,
                  281
    2    7 N      2, 22, 60, 81, 101, 113, 126, 129, 132, 137, 157, 172, 188,
                  207, 228, 236, 239, 245, 264
    3    8 O      12, 13, 17, 30, 31, 73, 80, 100, 109, 110, 112, 136, 156,
                  168, 169, 171, 187, 206, 220, 227, 244, 263, 282
    4   16 S      19, 23
    5    1 H      33-59, 61, 63, 65, 66, 69, 71, 74, 76, 78, 82, 84, 86, 87,
                  90, 92, 94, 96, 98, 102, 104, 106, 107, 114, 116, 118, 119,
                  121, 122, 124, 125, 127, 130, 131, 133, 134, 138, 140, 142,
                  143, 146, 148, 150, 152, 154, 158, 160, 162, 163, 165, 166,
                  173, 175, 177, 179-181, 183-185, 189, 191, 193, 195-197,
                  199, 200, 202-204, 208, 210, 212, 213, 216, 218, 221, 223,
                  225, 229, 231, 233, 234, 238, 240, 242, 246, 248, 250,
                  252-254, 256, 257, 259-261, 265, 267, 269, 271-273, 275,
                  276, 278-280, 283-298

           -------------------------------------------------
          |                Calculation Setup                |
           -------------------------------------------------

          program call               : xtb /home/antonio_mesquita/Documentos/gmx_ISA_project/testes_arquivos_primeiros/gmx_ISA_testes/testes_qm_xtb/QM_analysis/QM_FRAMES_CAPPED/frame_2200ps/complex_capped_2200ps.xyz --gfn 2 --alpb water --chrg 0 --etemp 1500 --cycles 1000
          coordinate file            : /home/antonio_mesquita/Documentos/gmx_ISA_project/testes_arquivos_primeiros/gmx_ISA_testes/testes_qm_xtb/QM_analysis/QM_FRAMES_CAPPED/frame_2200ps/complex_capped_2200ps.xyz
          omp threads                :                    16


molecular fragmentation (1/2 indicates fragments):
111111111111111111111111111111111111111111111111111111111112222222222222
222222222222222222222222222222222222222222222222222222222222222222222222
222222222222222222222222222222222222222222222222222222222222222222222222
222222222222222222222222222222222222222222222222222222222222222222222222
2222222222
# atoms in fragment 1/2:    59   239
 fragment masses (1/2) :      475.60     1611.95
CMA distance (Bohr)    :   7.303
constraining FC (au)   :  0.0500

           -------------------------------------------------
          |                 G F N 2 - x T B                 |
           -------------------------------------------------

        Reference                      10.1021/acs.jctc.8b01176
      * Hamiltonian:
        H0-scaling (s, p, d)           1.850000    2.230000    2.230000
        zeta-weighting                 0.500000
      * Dispersion:
        s8                             2.700000
        a1                             0.520000
        a2                             5.000000
        s9                             5.000000
      * Repulsion:
        kExp                           1.500000    1.000000
        rExp                           1.000000
      * Coulomb:
        alpha                          2.000000
        third order                    shell-resolved
        anisotropic                    true
        a3                             3.000000
        a5                             4.000000
        cn-shift                       1.200000
        cn-exp                         4.000000
        max-rad                        5.000000

      * Solvation model:               ALPB
        Solvent                        water
        Parameter file                 internal GFN2-xTB/ALPB
        Dielectric constant                8.0200E+01
        Reference state                gsolv [1 M gas/solution]
        Free energy shift                  1.0808E-03 Eh       6.7819E-01 kcal/mol
        Temperature                        2.9815E+02 K
        Density                            1.0000E+00 kg/L
        Solvent mass                       1.8000E+01 g/mol
        Interaction kernel             P16
        Born radius scaling (c1)           1.4744E+00
        Born radii integrator          GBOBC
        Born offset                        0.0000E+00 a0       0.0000E+00 AA
        H-bond correction              true
        Ion screening                  false
        Surface tension                    1.0000E-05 Eh       1.5569E+01 dyn/cm
        Grid points                               230 per atom

          ...................................................
          :                      SETUP                      :
          :.................................................:
          :  # basis functions                 751          :
          :  # atomic orbitals                 749          :
          :  # shells                          447          :
          :  # electrons                       808          :
          :  max. iterations                   250          :
          :  Hamiltonian                  GFN2-xTB          :
          :  restarted?                      false          :
          :  GBSA solvation                   true          :
          :  PC potential                    false          :
          :  electronic temp.         1500.0000000     K    :
          :  accuracy                    1.0000000          :
          :  -> integral cutoff          0.2500000E+02      :
          :  -> integral neglect         0.1000000E-07      :
          :  -> SCF convergence          0.1000000E-05 Eh   :
          :  -> wf. convergence          0.1000000E-03 e    :
          :  Broyden damping             0.4000000          :
          :  net charge                          0          :
          :  unpaired electrons                  0          :
          ...................................................

 iter      E             dE          RMSdq      gap      omega  full diag
   1   -457.4513796 -0.457451E+03  0.445E+00    0.07       0.0  T
   2   -458.1502438 -0.698864E+00  0.250E+00    1.21       1.0  T
   3   -458.0317533  0.118491E+00  0.164E+00    0.06       1.0  T
   4   -458.2946126 -0.262859E+00  0.787E-01    0.47       1.0  T
   5   -458.3350623 -0.404497E-01  0.585E-01    0.02       1.0  T
   6   -458.4367246 -0.101662E+00  0.187E-01    0.22       1.0  T
   7   -458.4363863  0.338321E-03  0.144E-01    0.29       1.0  T
   8   -458.4375718 -0.118552E-02  0.107E-01    0.22       1.0  T
   9   -458.4398387 -0.226697E-02  0.598E-02    0.31       1.0  T
  10   -458.4407131 -0.874321E-03  0.238E-02    0.28       1.0  T
  11   -458.4407467 -0.336359E-04  0.157E-02    0.28       1.0  T
  12   -458.4407820 -0.352777E-04  0.967E-03    0.27       1.0  T
  13   -458.4407937 -0.117570E-04  0.591E-03    0.28       1.0  T
  14   -458.4407982 -0.444393E-05  0.342E-03    0.28       1.7  T
  15   -458.4408003 -0.210527E-05  0.189E-03    0.28       3.1  T
  16   -458.4408008 -0.532613E-06  0.980E-04    0.28       5.9  T
  17   -458.4408009 -0.116257E-06  0.631E-04    0.28       9.2  T

   *** convergence criteria satisfied after 17 iterations ***

         #    Occupation            Energy/Eh            Energy/eV
      -------------------------------------------------------------
         1        2.0000           -0.7873595             -21.4251
       ...           ...                  ...                  ...
       398        1.8930           -0.3563512              -9.6968
       399        1.8816           -0.3558432              -9.6830
       400        1.8807           -0.3558018              -9.6819
       401        1.8766           -0.3556321              -9.6772
       402        1.8758           -0.3556011              -9.6764
       403        1.8667           -0.3552425              -9.6666
       404        1.8118           -0.3534616              -9.6182 (HOMO)
       405        1.0557           -0.3432328              -9.3398 (LUMO)
       406        0.0001           -0.2957575              -8.0480
       407        0.0001           -0.2947639              -8.0209
       408        0.0000           -0.2907512              -7.9117
       409        0.0000           -0.2854149              -7.7665
       ...           ...                  ...                  ...
       749                          1.0376269              28.2353
      -------------------------------------------------------------
                  HL-Gap            0.0102288 Eh            0.2783 eV
             Fermi-level           -0.3427034 Eh           -9.3254 eV

 SCC (total)                   0 d,  0 h,  0 min,  2.826 sec
 SCC setup                      ...        0 min,  0.020 sec (  0.701%)
 Dispersion                     ...        0 min,  0.035 sec (  1.225%)
 classical contributions        ...        0 min,  0.005 sec (  0.161%)
 integral evaluation            ...        0 min,  0.055 sec (  1.945%)
 iterations                     ...        0 min,  2.378 sec ( 84.156%)
 molecular gradient             ...        0 min,  0.322 sec ( 11.405%)
 printout                       ...        0 min,  0.011 sec (  0.406%)

         :::::::::::::::::::::::::::::::::::::::::::::::::::::
         ::                     SUMMARY                     ::
         :::::::::::::::::::::::::::::::::::::::::::::::::::::
         :: total energy            -452.782868926289 Eh    ::
         :: total w/o Gsasa/hb      -452.749936445281 Eh    ::
         :: gradient norm              0.340284307637 Eh/a0 ::
         :: HOMO-LUMO gap              0.278338574424 eV    ::
         ::.................................................::
         :: SCC energy              -458.416916733155 Eh    ::
         :: -> isotropic ES            1.173040308945 Eh    ::
         :: -> anisotropic ES         -0.011053020068 Eh    ::
         :: -> anisotropic XC          0.193548258323 Eh    ::
         :: -> dispersion             -0.364616285795 Eh    ::
         :: -> Gsolv                  -0.320354079737 Eh    ::
         ::    -> Gelec               -0.287421598729 Eh    ::
         ::    -> Gsasa                0.009282322816 Eh    ::
         ::    -> Ghb                 -0.043295563523 Eh    ::
         ::    -> Gshift               0.001080759698 Eh    ::
         :: repulsion energy           5.634047806866 Eh    ::
         :: add. restraining           0.000000000000 Eh    ::
         :: total charge              -0.000000000000 e     ::
         :::::::::::::::::::::::::::::::::::::::::::::::::::::

           -------------------------------------------------
          |                Property Printout                |
           -------------------------------------------------

    * Orbital Energies and Occupations

         #    Occupation            Energy/Eh            Energy/eV
      -------------------------------------------------------------
         1        2.0000           -0.7873595             -21.4251
       ...           ...                  ...                  ...
       392        1.9982           -0.3761289             -10.2350
       393        1.9947           -0.3709090             -10.0929
       394        1.9946           -0.3708277             -10.0907
       395        1.9848           -0.3658400              -9.9550
       396        1.9626           -0.3615156              -9.8373
       397        1.9250           -0.3581176              -9.7449
       398        1.8930           -0.3563512              -9.6968
       399        1.8816           -0.3558432              -9.6830
       400        1.8807           -0.3558018              -9.6819
       401        1.8766           -0.3556321              -9.6772
       402        1.8758           -0.3556011              -9.6764
       403        1.8667           -0.3552425              -9.6666
       404        1.8118           -0.3534616              -9.6182 (HOMO)
       405        1.0557           -0.3432328              -9.3398 (LUMO)
       406        0.0001           -0.2957575              -8.0480
       407        0.0001           -0.2947639              -8.0209
       408        0.0000           -0.2907512              -7.9117
       409        0.0000           -0.2854149              -7.7665
       410        0.0000           -0.2842303              -7.7343
       411        0.0000           -0.2816797              -7.6649
       412        0.0000           -0.2806693              -7.6374
       413        0.0000           -0.2768306              -7.5329
       414                         -0.2619958              -7.1293
       415                         -0.2493512              -6.7852
       ...                                ...                  ...
       749                          1.0376269              28.2353
      -------------------------------------------------------------
                  HL-Gap            0.0102288 Eh            0.2783 eV
             Fermi-level           -0.3427034 Eh           -9.3254 eV

     #   Z          covCN         q      C6AA      α(0)
     1   6 C        2.744     0.262    22.574     7.779
     2   7 N        2.684    -0.126    23.741     7.237
     3   6 C        2.876     0.020    27.569     8.608
     4   6 C        3.709     0.090    19.215     6.265
     5   6 C        3.807    -0.066    21.768     6.642
     6   6 C        2.970     0.019    27.589     8.616
     7   6 C        2.918    -0.039    28.960     8.825
     8   6 C        2.904    -0.037    28.909     8.816
     9   6 C        2.917    -0.035    28.867     8.811
    10   6 C        2.910    -0.039    28.976     8.827
    11   6 C        2.914    -0.038    28.953     8.823
    12   8 O        1.702    -0.295    18.901     5.870
    13   8 O        0.860    -0.482    23.388     6.484
    14   6 C        2.728     0.327    21.440     7.580
    15   6 C        3.746    -0.113    22.731     6.801
    16   6 C        3.828     0.014    20.313     6.413
    17   8 O        0.858    -0.488    23.527     6.503
    18   6 C        3.789    -0.044    21.379     6.585
    19  16 S        1.964    -0.106   145.499    20.302
    20   6 C        3.791    -0.045    21.381     6.585
    21   6 C        3.870     0.032    19.987     6.357
    22   7 N        2.729    -0.295    27.596     7.802
    23  16 S        3.823     1.162   102.133    17.009
    24   6 C        2.957    -0.098    30.466     9.053
    25   6 C        2.938    -0.023    28.579     8.768
    26   6 C        2.916    -0.023    28.574     8.766
    27   6 C        2.955     0.047    26.948     8.514
    28   6 C        2.923    -0.040    28.987     8.829
    29   6 C        2.939    -0.037    28.927     8.821
    30   8 O        0.860    -0.657    27.553     7.038
    31   8 O        0.859    -0.633    26.932     6.958
    32   6 C        3.752    -0.130    23.056     6.847
    33   1 H        0.868     0.253     0.871     1.462
    34   1 H        0.924     0.052     2.295     2.369
    35   1 H        0.924     0.067     2.115     2.274
    36   1 H        0.923     0.062     2.175     2.306
    37   1 H        0.923     0.069     2.097     2.265
    38   1 H        0.925     0.039     2.466     2.456
    39   1 H        0.926     0.066     2.126     2.280
    40   1 H        0.925     0.039     2.456     2.451
    41   1 H        0.925     0.039     2.456     2.451
    42   1 H        0.926     0.035     2.514     2.480
    43   1 H        0.925     0.048     2.345     2.395
    44   1 H        0.924     0.045     2.387     2.416
    45   1 H        0.923     0.056     2.243     2.342
    46   1 H        0.924     0.022     2.698     2.569
    47   1 H        0.924     0.064     2.149     2.292
    48   1 H        0.925     0.081     1.968     2.194
    49   1 H        0.923     0.096     1.824     2.112
    50   1 H        0.924     0.097     1.812     2.105
    51   1 H        0.923     0.091     1.865     2.136
    52   1 H        0.924     0.086     1.921     2.167
    53   1 H        0.926     0.059     2.207     2.323
    54   1 H        0.925     0.071     2.069     2.250
    55   1 H        0.925     0.084     1.939     2.178
    56   1 H        0.924     0.049     2.330     2.387
    57   1 H        0.924     0.063     2.165     2.301
    58   1 H        0.924     0.085     1.933     2.174
    59   1 H        0.924     0.073     2.057     2.243
    60   7 N        2.632    -0.333    28.569     7.938
    61   1 H        0.860     0.183     1.198     1.714
    62   6 C        3.783     0.043    19.877     6.351
    63   1 H        0.923     0.071     2.078     2.254
    64   6 C        3.814    -0.081    22.041     6.682
    65   1 H        0.925     0.081     1.973     2.197
    66   1 H        0.925     0.064     2.158     2.297
    67   6 C        2.972     0.005    27.919     8.667
    68   6 C        2.907    -0.044    29.089     8.844
    69   1 H        0.925     0.036     2.504     2.475
    70   6 C        2.911    -0.068    29.689     8.935
    71   1 H        0.925     0.035     2.521     2.483
    72   6 C        2.832     0.145    24.839     8.167
    73   8 O        1.659    -0.416    21.157     6.209
    74   1 H        0.805     0.338     0.616     1.233
    75   6 C        2.917    -0.062    29.552     8.914
    76   1 H        0.926     0.058     2.228     2.334
    77   6 C        2.906    -0.043    29.079     8.842
    78   1 H        0.926     0.061     2.188     2.313
    79   6 C        2.761     0.208    23.590     7.954
    80   8 O        0.857    -0.367    21.027     6.148
    81   7 N        2.638    -0.352    29.079     8.009
    82   1 H        0.860     0.177     1.229     1.737
    83   6 C        3.790     0.032    20.052     6.377
    84   1 H        0.925     0.060     2.196     2.317
    85   6 C        3.809    -0.066    21.756     6.639
    86   1 H        0.924     0.066     2.131     2.283
    87   1 H        0.925     0.050     2.315     2.379
    88   6 C        2.954     0.002    27.974     8.675
    89   6 C        2.934    -0.048    29.197     8.862
    90   1 H        0.926     0.036     2.506     2.475
    91   6 C        2.910    -0.037    28.921     8.818
    92   1 H        0.926     0.043     2.409     2.427
    93   6 C        2.913    -0.034    28.859     8.809
    94   1 H        0.926     0.046     2.366     2.405
    95   6 C        2.914    -0.034    28.855     8.808
    96   1 H        0.926     0.043     2.410     2.428
    97   6 C        2.924    -0.040    29.000     8.831
    98   1 H        0.926     0.025     2.657     2.549
    99   6 C        2.762     0.269    22.466     7.762
   100   8 O        0.858    -0.506    23.914     6.556
   101   7 N        2.695    -0.159    24.429     7.341
   102   1 H        0.860     0.219     1.012     1.576
   103   6 C        3.798     0.043    19.848     6.343
   104   1 H        0.924     0.095     1.827     2.114
   105   6 C        3.809    -0.089    22.193     6.706
   106   1 H        0.924     0.054     2.276     2.359
   107   1 H        0.925     0.067     2.124     2.279
   108   6 C        2.687     0.359    20.908     7.483
   109   8 O        0.857    -0.605    26.254     6.870
   110   8 O        0.857    -0.611    26.379     6.886
   111   6 C        2.759     0.201    23.717     7.975
   112   8 O        0.857    -0.367    21.027     6.148
   113   7 N        2.633    -0.350    29.029     8.002
   114   1 H        0.860     0.189     1.165     1.691
   115   6 C        3.789     0.042    19.878     6.350
   116   1 H        0.924     0.089     1.893     2.152
   117   6 C        3.810    -0.076    21.939     6.667
   118   1 H        0.924     0.069     2.100     2.266
   119   1 H        0.924     0.082     1.955     2.186
   120   6 C        3.804    -0.079    22.013     6.679
   121   1 H        0.924     0.060     2.198     2.318
   122   1 H        0.925     0.054     2.267     2.355
   123   6 C        3.738    -0.023    21.063     6.549
   124   1 H        0.924     0.080     1.984     2.203
   125   1 H        0.925     0.089     1.886     2.148
   126   7 N        2.694    -0.153    24.308     7.323
   127   1 H        0.860     0.233     0.954     1.530
   128   6 C        2.733     0.231    23.142     7.876
   129   7 N        2.646    -0.269    26.955     7.711
   130   1 H        0.860     0.241     0.919     1.502
   131   1 H        0.860     0.244     0.908     1.493
   132   7 N        2.654    -0.271    27.006     7.718
   133   1 H        0.860     0.245     0.904     1.490
   134   1 H        0.860     0.252     0.875     1.465
   135   6 C        2.762     0.199    23.751     7.981
   136   8 O        0.858    -0.396    21.604     6.232
   137   7 N        2.661    -0.323    28.312     7.903
   138   1 H        0.860     0.193     1.144     1.676
   139   6 C        3.788     0.040    19.913     6.356
   140   1 H        0.924     0.089     1.887     2.148
   141   6 C        3.835    -0.073    21.865     6.653
   142   1 H        0.924     0.075     2.027     2.226
   143   1 H        0.924     0.084     1.939     2.177
   144   6 C        2.957     0.004    27.927     8.668
   145   6 C        2.923    -0.045    29.108     8.848
   146   1 H        0.926     0.039     2.467     2.456
   147   6 C        2.907    -0.037    28.908     8.816
   148   1 H        0.925     0.033     2.548     2.496
   149   6 C        2.910    -0.040    28.982     8.828
   150   1 H        0.926     0.028     2.612     2.527
   151   6 C        2.909    -0.034    28.851     8.808
   152   1 H        0.926     0.028     2.618     2.530
   153   6 C        2.920    -0.045    29.122     8.850
   154   1 H        0.926     0.048     2.349     2.397
   155   6 C        2.757     0.211    23.536     7.945
   156   8 O        0.856    -0.372    21.132     6.163
   157   7 N        2.631    -0.352    29.071     8.008
   158   1 H        0.860     0.181     1.210     1.723
   159   6 C        3.787     0.032    20.047     6.377
   160   1 H        0.925     0.054     2.276     2.359
   161   6 C        3.810    -0.045    21.376     6.581
   162   1 H        0.925     0.036     2.506     2.476
   163   1 H        0.925     0.056     2.249     2.345
   164   6 C        3.801    -0.091    22.236     6.714
   165   1 H        0.924     0.038     2.481     2.463
   166   1 H        0.923     0.039     2.466     2.456
   167   6 C        2.686     0.363    20.838     7.471
   168   8 O        0.857    -0.661    27.660     7.051
   169   8 O        0.857    -0.649    27.366     7.014
   170   6 C        2.750     0.268    22.466     7.761
   171   8 O        0.859    -0.523    24.310     6.611
   172   7 N        2.694    -0.152    24.280     7.318
   173   1 H        0.860     0.214     1.037     1.595
   174   6 C        3.791     0.023    20.194     6.400
   175   1 H        0.924     0.073     2.057     2.243
   176   6 C        3.862    -0.024    20.957     6.510
   177   1 H        0.925     0.066     2.134     2.285
   178   6 C        3.759    -0.110    22.656     6.786
   179   1 H        0.924     0.027     2.632     2.537
   180   1 H        0.925     0.069     2.097     2.265
   181   1 H        0.924     0.033     2.546     2.495
   182   6 C        3.756    -0.122    22.888     6.821
   183   1 H        0.924     0.042     2.422     2.434
   184   1 H        0.925     0.036     2.508     2.476
   185   1 H        0.925     0.071     2.076     2.253
   186   6 C        2.765     0.269    22.452     7.760
   187   8 O        0.860    -0.522    24.279     6.606
   188   7 N        2.689    -0.155    24.351     7.329
   189   1 H        0.860     0.223     0.996     1.563
   190   6 C        3.814     0.035    19.976     6.361
   191   1 H        0.925     0.075     2.027     2.227
   192   6 C        3.861    -0.018    20.849     6.494
   193   1 H        0.925     0.057     2.235     2.338
   194   6 C        3.766    -0.129    23.017     6.838
   195   1 H        0.925     0.052     2.298     2.370
   196   1 H        0.924     0.052     2.300     2.372
   197   1 H        0.925     0.069     2.101     2.267
   198   6 C        3.801    -0.060    21.651     6.625
   199   1 H        0.925     0.038     2.479     2.462
   200   1 H        0.925     0.050     2.315     2.379
   201   6 C        3.749    -0.115    22.762     6.805
   202   1 H        0.923     0.041     2.433     2.439
   203   1 H        0.924     0.051     2.312     2.378
   204   1 H        0.925     0.054     2.273     2.358
   205   6 C        2.761     0.212    23.520     7.942
   206   8 O        0.856    -0.371    21.111     6.160
   207   7 N        2.636    -0.342    28.800     7.970
   208   1 H        0.860     0.189     1.166     1.692
   209   6 C        3.783     0.042    19.880     6.351
   210   1 H        0.924     0.076     2.022     2.223
   211   6 C        3.814    -0.068    21.791     6.644
   212   1 H        0.925     0.055     2.257     2.349
   213   1 H        0.925     0.066     2.133     2.284
   214   6 C        2.956     0.003    27.947     8.671
   215   6 C        2.915    -0.043    29.064     8.840
   216   1 H        0.926     0.041     2.429     2.437
   217   6 C        2.908    -0.073    29.828     8.955
   218   1 H        0.925     0.034     2.530     2.488
   219   6 C        2.832     0.137    25.008     8.195
   220   8 O        1.659    -0.434    21.525     6.263
   221   1 H        0.806     0.347     0.596     1.212
   222   6 C        2.911    -0.058    29.437     8.897
   223   1 H        0.926     0.055     2.254     2.348
   224   6 C        2.913    -0.044    29.105     8.846
   225   1 H        0.925     0.052     2.296     2.369
   226   6 C        2.758     0.199    23.752     7.981
   227   8 O        0.856    -0.401    21.701     6.246
   228   7 N        2.632    -0.335    28.617     7.945
   229   1 H        0.860     0.197     1.120     1.658
   230   6 C        3.788     0.049    19.761     6.331
   231   1 H        0.925     0.056     2.247     2.344
   232   6 C        3.806    -0.071    21.847     6.654
   233   1 H        0.925     0.062     2.175     2.306
   234   1 H        0.925     0.070     2.084     2.258
   235   6 C        3.117     0.046    26.801     8.480
   236   7 N        1.909    -0.338    29.624     8.070
   237   6 C        3.006     0.080    26.197     8.396
   238   1 H        0.926     0.048     2.350     2.397
   239   7 N        2.821    -0.099    23.172     7.149
   240   1 H        0.860     0.220     1.011     1.575
   241   6 C        2.960    -0.043    29.074     8.844
   242   1 H        0.926     0.066     2.131     2.283
   243   6 C        2.758     0.196    23.814     7.991
   244   8 O        0.861    -0.363    20.955     6.137
   245   7 N        2.632    -0.349    29.004     7.998
   246   1 H        0.860     0.176     1.239     1.744
   247   6 C        3.791     0.020    20.256     6.410
   248   1 H        0.924     0.068     2.107     2.270
   249   6 C        3.856    -0.022    20.932     6.507
   250   1 H        0.925     0.055     2.254     2.348
   251   6 C        3.757    -0.107    22.596     6.777
   252   1 H        0.925     0.043     2.406     2.426
   253   1 H        0.925     0.047     2.354     2.399
   254   1 H        0.924     0.029     2.602     2.523
   255   6 C        3.806    -0.060    21.658     6.625
   256   1 H        0.925     0.028     2.617     2.530
   257   1 H        0.924     0.039     2.458     2.452
   258   6 C        3.749    -0.107    22.612     6.782
   259   1 H        0.925     0.033     2.542     2.493
   260   1 H        0.925     0.040     2.447     2.446
   261   1 H        0.924     0.033     2.548     2.496
   262   6 C        2.752     0.274    22.364     7.744
   263   8 O        0.858    -0.505    23.888     6.553
   264   7 N        2.689    -0.164    24.553     7.359
   265   1 H        0.860     0.230     0.965     1.539
   266   6 C        3.805     0.028    20.103     6.383
   267   1 H        0.924     0.070     2.088     2.260
   268   6 C        3.853    -0.017    20.847     6.494
   269   1 H        0.924     0.061     2.187     2.313
   270   6 C        3.758    -0.124    22.924     6.826
   271   1 H        0.925     0.048     2.344     2.394
   272   1 H        0.924     0.063     2.166     2.301
   273   1 H        0.924     0.036     2.505     2.475
   274   6 C        3.801    -0.052    21.499     6.601
   275   1 H        0.923     0.026     2.644     2.543
   276   1 H        0.924     0.043     2.409     2.427
   277   6 C        3.750    -0.109    22.651     6.787
   278   1 H        0.925     0.050     2.325     2.385
   279   1 H        0.923     0.029     2.594     2.519
   280   1 H        0.925     0.051     2.303     2.373
   281   6 C        2.758     0.197    23.805     7.990
   282   8 O        0.859    -0.365    20.986     6.142
   283   1 H        0.860     0.204     1.086     1.632
   284   1 H        0.923     0.064     2.152     2.294
   285   1 H        0.860     0.198     1.118     1.657
   286   1 H        0.923     0.076     2.016     2.221
   287   1 H        0.860     0.192     1.146     1.677
   288   1 H        0.923     0.068     2.112     2.273
   289   1 H        0.860     0.186     1.180     1.701
   290   1 H        0.923     0.043     2.416     2.431
   291   1 H        0.860     0.188     1.171     1.695
   292   1 H        0.923     0.064     2.149     2.292
   293   1 H        0.860     0.183     1.199     1.715
   294   1 H        0.923     0.062     2.181     2.310
   295   1 H        0.860     0.187     1.175     1.698
   296   1 H        0.923     0.076     2.026     2.226
   297   1 H        0.860     0.204     1.088     1.634
   298   1 H        0.923     0.085     1.925     2.170

 Mol. C6AA /au·bohr⁶  :     900165.282526
 Mol. C8AA /au·bohr⁸  :   20890362.975510
 Mol. α(0) /au        :       1450.287131


Wiberg/Mayer (AO) data.
largest (>0.10) Wiberg bond orders for each atom

 ---------------------------------------------------------------------------
     #   Z sym  total        # sym  WBO       # sym  WBO       # sym  WBO
 ---------------------------------------------------------------------------
     1   6 C    3.872 --    17 O    1.649     2 N    1.188    21 C    0.937
     2   7 N    3.482 --     3 C    1.189     1 C    1.188    33 H    0.855
                            17 O    0.139
     3   6 C    3.510 --     2 N    1.189    14 C    1.111     5 C    1.021
     4   6 C    3.920 --    15 C    1.013    35 H    0.967    34 H    0.964
                            12 O    0.935
     5   6 C    3.974 --     3 C    1.021     6 C    0.966    36 H    0.962
                            37 H    0.953
     6   6 C    3.951 --     7 C    1.416    11 C    1.407     5 C    0.966
                             9 C    0.103
     7   6 C    3.982 --     8 C    1.433     6 C    1.416    38 H    0.967
                            10 C    0.111
     8   6 C    3.984 --     9 C    1.437     7 C    1.433    39 H    0.961
                            11 C    0.114
     9   6 C    3.982 --     8 C    1.437    10 C    1.435    40 H    0.966
                             6 C    0.103
    10   6 C    3.985 --    11 C    1.437     9 C    1.435    41 H    0.962
                             7 C    0.111
    11   6 C    3.983 --    10 C    1.437     6 C    1.407    42 H    0.968
                             8 C    0.114
    12   8 O    2.220 --    14 C    1.083     4 C    0.935    13 O    0.136
    13   8 O    1.845 --    14 C    1.592    12 O    0.136
    14   6 C    3.860 --    13 O    1.592     3 C    1.111    12 O    1.083
    15   6 C    3.991 --     4 C    1.013    45 H    0.985    44 H    0.985
                            43 H    0.983
    16   6 C    3.963 --    18 C    1.000    22 N    0.983    46 H    0.969
                            47 H    0.961
    17   8 O    1.902 --     1 C    1.649     2 N    0.139
    18   6 C    3.968 --    16 C    1.000    19 S    0.992    48 H    0.972
                            49 H    0.965
    19  16 S    2.147 --    20 C    0.994    18 C    0.992
    20   6 C    3.972 --    19 S    0.994    21 C    0.993    50 H    0.966
                            51 H    0.963
    21   6 C    3.961 --    20 C    0.993    22 N    0.980     1 C    0.937
                            52 H    0.926
    22   7 N    3.174 --    16 C    0.983    21 C    0.980    23 S    0.887
    23  16 S    4.814 --    31 O    1.555    30 O    1.538    22 N    0.887
                            24 C    0.735
    24   6 C    3.944 --    29 C    1.418    25 C    1.392    23 S    0.735
                            27 C    0.100
    25   6 C    3.982 --    26 C    1.461    24 C    1.392    53 H    0.964
                            28 C    0.104
    26   6 C    3.985 --    25 C    1.461    27 C    1.381    54 H    0.962
                            29 C    0.105
    27   6 C    3.981 --    28 C    1.412    26 C    1.381    32 C    1.037
                            24 C    0.100
    28   6 C    3.981 --    29 C    1.431    27 C    1.412    55 H    0.963
                            25 C    0.104
    29   6 C    3.983 --    28 C    1.431    24 C    1.418    56 H    0.966
                            26 C    0.105
    30   8 O    1.841 --    23 S    1.538    31 O    0.104
    31   8 O    1.851 --    23 S    1.555    30 O    0.104
    32   6 C    3.985 --    27 C    1.037    57 H    0.977    59 H    0.973
                            58 H    0.951
    33   1 H    0.935 --     2 N    0.855
    34   1 H    0.995 --     4 C    0.964
    35   1 H    0.994 --     4 C    0.967
    36   1 H    0.991 --     5 C    0.962
    37   1 H    0.985 --     5 C    0.953
    38   1 H    0.998 --     7 C    0.967
    39   1 H    0.995 --     8 C    0.961
    40   1 H    0.997 --     9 C    0.966
    41   1 H    0.998 --    10 C    0.962
    42   1 H    0.998 --    11 C    0.968
    43   1 H    0.997 --    15 C    0.983
    44   1 H    0.998 --    15 C    0.985
    45   1 H    0.997 --    15 C    0.985
    46   1 H    0.999 --    16 C    0.969
    47   1 H    0.996 --    16 C    0.961
    48   1 H    0.991 --    18 C    0.972
    49   1 H    0.990 --    18 C    0.965
    50   1 H    0.988 --    20 C    0.966
    51   1 H    0.991 --    20 C    0.963
    52   1 H    0.989 --    21 C    0.926
    53   1 H    0.996 --    25 C    0.964
    54   1 H    0.994 --    26 C    0.962
    55   1 H    0.992 --    28 C    0.963
    56   1 H    0.997 --    29 C    0.966
    57   1 H    0.996 --    32 C    0.977
    58   1 H    0.992 --    32 C    0.951
    59   1 H    0.994 --    32 C    0.973
    60   7 N    2.985 --    62 C    1.029    61 H    0.950   283 H    0.944
    61   1 H    0.967 --    60 N    0.950
    62   6 C    3.972 --    60 N    1.029    79 C    0.980    63 H    0.952
                            64 C    0.925
    63   1 H    0.992 --    62 C    0.952
    64   6 C    3.966 --    67 C    1.012    65 H    0.963    66 H    0.961
                            62 C    0.925
    65   1 H    0.992 --    64 C    0.963
    66   1 H    0.992 --    64 C    0.961
    67   6 C    3.964 --    77 C    1.400    68 C    1.393    64 C    1.012
    68   6 C    3.980 --    70 C    1.463    67 C    1.393    69 H    0.967
                            75 C    0.103
    69   1 H    0.999 --    68 C    0.967
    70   6 C    3.979 --    68 C    1.463    72 C    1.351    71 H    0.967
                            77 C    0.103
    71   1 H    0.998 --    70 C    0.967
    72   6 C    3.921 --    75 C    1.358    70 C    1.351    73 O    1.090
    73   8 O    2.100 --    72 C    1.090    74 H    0.838
    74   1 H    0.885 --    73 O    0.838
    75   6 C    3.976 --    77 C    1.455    72 C    1.358    76 H    0.966
                            68 C    0.103
    76   1 H    0.996 --    75 C    0.966
    77   6 C    3.979 --    75 C    1.455    67 C    1.400    78 H    0.965
                            70 C    0.103
    78   1 H    0.996 --    77 C    0.965
    79   6 C    3.880 --    80 O    1.901    62 C    0.980   284 H    0.936
    80   8 O    2.051 --    79 C    1.901
    81   7 N    2.987 --    83 C    1.019   285 H    0.947    82 H    0.944
    82   1 H    0.968 --    81 N    0.944
    83   6 C    3.971 --    81 N    1.019    85 C    0.962    84 H    0.957
                            99 C    0.931
    84   1 H    0.995 --    83 C    0.957
    85   6 C    3.978 --    88 C    1.009    86 H    0.964    83 C    0.962
                            87 H    0.960
    86   1 H    0.994 --    85 C    0.964
    87   1 H    0.996 --    85 C    0.960
    88   6 C    3.986 --    89 C    1.411    97 C    1.405    85 C    1.009
                            93 C    0.109
    89   6 C    3.987 --    91 C    1.438    88 C    1.411    90 H    0.969
                            95 C    0.111
    90   1 H    0.999 --    89 C    0.969
    91   6 C    3.988 --    93 C    1.440    89 C    1.438    92 H    0.970
                            97 C    0.111
    92   1 H    0.998 --    91 C    0.970
    93   6 C    3.987 --    91 C    1.440    95 C    1.431    94 H    0.969
                            88 C    0.109
    94   1 H    0.997 --    93 C    0.969
    95   6 C    3.990 --    97 C    1.447    93 C    1.431    96 H    0.969
                            89 C    0.111
    96   1 H    0.998 --    95 C    0.969
    97   6 C    3.990 --    95 C    1.447    88 C    1.405    98 H    0.969
                            91 C    0.111
    98   1 H    0.999 --    97 C    0.969
    99   6 C    3.932 --   100 O    1.626   101 N    1.304    83 C    0.931
   100   8 O    1.926 --    99 C    1.626   101 N    0.195
   101   7 N    3.473 --    99 C    1.304   103 C    0.985   102 H    0.908
                           100 O    0.195
   102   1 H    0.952 --   101 N    0.908
   103   6 C    3.969 --   111 C    1.001   101 N    0.985   105 C    0.944
                           104 H    0.923
   104   1 H    0.991 --   103 C    0.923
   105   6 C    3.980 --   106 H    0.976   107 H    0.956   108 C    0.946
                           103 C    0.944
   106   1 H    0.997 --   105 C    0.976
   107   1 H    0.995 --   105 C    0.956
   108   6 C    3.941 --   109 O    1.498   110 O    1.463   105 C    0.946
   109   8 O    1.856 --   108 C    1.498   110 O    0.214
   110   8 O    1.840 --   108 C    1.463   109 O    0.214
   111   6 C    3.895 --   112 O    1.889   103 C    1.001   286 H    0.937
   112   8 O    2.052 --   111 C    1.889
   113   7 N    2.994 --   115 C    1.030   114 H    0.948   287 H    0.948
   114   1 H    0.964 --   113 N    0.948
   115   6 C    3.968 --   113 N    1.030   117 C    0.968   135 C    0.962
                           116 H    0.926
   116   1 H    0.987 --   115 C    0.926
   117   6 C    3.981 --   120 C    1.003   118 H    0.969   115 C    0.968
                           119 H    0.963
   118   1 H    0.995 --   117 C    0.969
   119   1 H    0.993 --   117 C    0.963
   120   6 C    3.988 --   117 C    1.003   123 C    0.997   121 H    0.972
                           122 H    0.971
   121   1 H    0.996 --   120 C    0.972
   122   1 H    0.997 --   120 C    0.971
   123   6 C    3.956 --   120 C    0.997   126 N    0.986   125 H    0.966
                           124 H    0.963
   124   1 H    0.993 --   123 C    0.963
   125   1 H    0.992 --   123 C    0.966
   126   7 N    3.446 --   128 C    1.290   123 C    0.986   127 H    0.915
                           132 N    0.100
   127   1 H    0.946 --   126 N    0.915
   128   6 C    3.975 --   132 N    1.327   129 N    1.327   126 N    1.290
   129   7 N    3.388 --   128 C    1.327   130 H    0.918   131 H    0.869
                           132 N    0.106
   130   1 H    0.942 --   129 N    0.918
   131   1 H    0.941 --   129 N    0.869
   132   7 N    3.386 --   128 C    1.327   133 H    0.916   134 H    0.868
                           129 N    0.106   126 N    0.100
   133   1 H    0.940 --   132 N    0.916
   134   1 H    0.936 --   132 N    0.868
   135   6 C    3.854 --   136 O    1.881   115 C    0.962   288 H    0.934
   136   8 O    2.025 --   135 C    1.881
   137   7 N    2.986 --   139 C    1.028   289 H    0.950   138 H    0.946
   138   1 H    0.963 --   137 N    0.946
   139   6 C    3.975 --   137 N    1.028   155 C    0.973   141 C    0.943
                           140 H    0.936
   140   1 H    0.992 --   139 C    0.936
   141   6 C    3.971 --   144 C    1.004   143 H    0.964   142 H    0.962
                           139 C    0.943
   142   1 H    0.994 --   141 C    0.962
   143   1 H    0.992 --   141 C    0.964
   144   6 C    3.981 --   153 C    1.421   145 C    1.399   141 C    1.004
                           149 C    0.111
   145   6 C    3.988 --   147 C    1.452   144 C    1.399   146 H    0.969
                           151 C    0.113
   146   1 H    0.998 --   145 C    0.969
   147   6 C    3.989 --   145 C    1.452   149 C    1.432   148 H    0.966
                           153 C    0.107
   148   1 H    0.999 --   147 C    0.966
   149   6 C    3.987 --   151 C    1.440   147 C    1.432   150 H    0.965
                           144 C    0.111
   150   1 H    0.999 --   149 C    0.965
   151   6 C    3.990 --   149 C    1.440   153 C    1.437   152 H    0.971
                           145 C    0.113
   152   1 H    0.999 --   151 C    0.971
   153   6 C    3.985 --   151 C    1.437   144 C    1.421   154 H    0.969
                           147 C    0.107
   154   1 H    0.998 --   153 C    0.969
   155   6 C    3.872 --   156 O    1.897   139 C    0.973   290 H    0.935
   156   8 O    2.055 --   155 C    1.897
   157   7 N    2.991 --   159 C    1.024   291 H    0.950   158 H    0.949
   158   1 H    0.967 --   157 N    0.949
   159   6 C    3.968 --   157 N    1.024   161 C    0.976   160 H    0.942
                           170 C    0.933
   160   1 H    0.983 --   159 C    0.942
   161   6 C    3.993 --   164 C    1.004   159 C    0.976   162 H    0.973
                           163 H    0.970
   162   1 H    0.998 --   161 C    0.973
   163   1 H    0.995 --   161 C    0.970
   164   6 C    3.981 --   161 C    1.004   165 H    0.974   166 H    0.957
                           167 C    0.939
   165   1 H    0.998 --   164 C    0.974
   166   1 H    0.998 --   164 C    0.957
   167   6 C    3.926 --   169 O    1.483   168 O    1.482   164 C    0.939
   168   8 O    1.761 --   167 C    1.482   169 O    0.209
   169   8 O    1.765 --   167 C    1.483   168 O    0.209
   170   6 C    3.936 --   171 O    1.603   172 N    1.316   159 C    0.933
   171   8 O    1.916 --   170 C    1.603   172 N    0.192
   172   7 N    3.480 --   170 C    1.316   174 C    0.985   173 H    0.909
                           171 O    0.192
   173   1 H    0.954 --   172 N    0.909
   174   6 C    3.962 --   172 N    0.985   176 C    0.957   186 C    0.943
                           175 H    0.940
   175   1 H    0.995 --   174 C    0.940
   176   6 C    3.989 --   182 C    1.008   178 C    1.005   177 H    0.961
                           174 C    0.957
   177   1 H    0.995 --   176 C    0.961
   178   6 C    3.990 --   176 C    1.005   179 H    0.984   180 H    0.976
                           181 H    0.975
   179   1 H    0.999 --   178 C    0.984
   180   1 H    0.995 --   178 C    0.976
   181   1 H    0.999 --   178 C    0.975
   182   6 C    3.989 --   176 C    1.008   184 H    0.984   185 H    0.981
                           183 H    0.980
   183   1 H    0.998 --   182 C    0.980
   184   1 H    0.999 --   182 C    0.984
   185   1 H    0.995 --   182 C    0.981
   186   6 C    3.950 --   187 O    1.616   188 N    1.312   174 C    0.943
   187   8 O    1.926 --   186 C    1.616   188 N    0.192
   188   7 N    3.464 --   186 C    1.312   190 C    0.972   189 H    0.906
                           187 O    0.192
   189   1 H    0.950 --   188 N    0.906
   190   6 C    3.962 --   205 C    0.985   188 N    0.972   191 H    0.948
                           192 C    0.938
   191   1 H    0.994 --   190 C    0.948
   192   6 C    3.978 --   198 C    0.996   194 C    0.995   193 H    0.965
                           190 C    0.938
   193   1 H    0.996 --   192 C    0.965
   194   6 C    3.986 --   192 C    0.995   197 H    0.977   195 H    0.977
                           196 H    0.975
   195   1 H    0.997 --   194 C    0.977
   196   1 H    0.997 --   194 C    0.975
   197   1 H    0.995 --   194 C    0.977
   198   6 C    3.991 --   201 C    1.018   192 C    0.996   199 H    0.976
                           200 H    0.972
   199   1 H    0.998 --   198 C    0.976
   200   1 H    0.997 --   198 C    0.972
   201   6 C    3.992 --   198 C    1.018   202 H    0.985   204 H    0.985
                           203 H    0.984
   202   1 H    0.998 --   201 C    0.985
   203   1 H    0.997 --   201 C    0.984
   204   1 H    0.997 --   201 C    0.985
   205   6 C    3.894 --   206 O    1.890   190 C    0.985   292 H    0.937
   206   8 O    2.052 --   205 C    1.890
   207   7 N    3.017 --   209 C    1.032   293 H    0.952   208 H    0.949
   208   1 H    0.964 --   207 N    0.949
   209   6 C    3.979 --   207 N    1.032   226 C    0.971   211 C    0.956
                           210 H    0.932
   210   1 H    0.990 --   209 C    0.932
   211   6 C    3.985 --   214 C    1.007   213 H    0.966   212 H    0.958
                           209 C    0.956
   212   1 H    0.996 --   211 C    0.958
   213   1 H    0.995 --   211 C    0.966
   214   6 C    3.985 --   215 C    1.411   224 C    1.400   211 C    1.007
   215   6 C    3.988 --   217 C    1.446   214 C    1.411   216 H    0.966
                           222 C    0.106
   216   1 H    0.998 --   215 C    0.966
   217   6 C    3.986 --   215 C    1.446   219 C    1.373   218 H    0.965
                           224 C    0.108
   218   1 H    0.999 --   217 C    0.965
   219   6 C    3.938 --   217 C    1.373   222 C    1.367   220 O    1.068
   220   8 O    2.078 --   219 C    1.068   221 H    0.856
   221   1 H    0.879 --   220 O    0.856
   222   6 C    3.984 --   224 C    1.453   219 C    1.367   223 H    0.964
                           215 C    0.106
   223   1 H    0.996 --   222 C    0.964
   224   6 C    3.984 --   222 C    1.453   214 C    1.400   225 H    0.964
                           217 C    0.108
   225   1 H    0.997 --   224 C    0.964
   226   6 C    3.864 --   227 O    1.874   209 C    0.971   294 H    0.935
   227   8 O    2.028 --   226 C    1.874
   228   7 N    2.994 --   230 C    1.031   295 H    0.951   229 H    0.916
   229   1 H    0.961 --   228 N    0.916
   230   6 C    3.980 --   228 N    1.031   243 C    0.992   231 H    0.956
                           232 C    0.923
   231   1 H    0.992 --   230 C    0.956
   232   6 C    3.977 --   235 C    1.010   233 H    0.966   234 H    0.965
                           230 C    0.923
   233   1 H    0.995 --   232 C    0.966
   234   1 H    0.995 --   232 C    0.965
   235   6 C    3.970 --   241 C    1.556   236 N    1.281   232 C    1.010
   236   7 N    2.989 --   237 C    1.512   235 C    1.281   239 N    0.103
   237   6 C    3.956 --   236 N    1.512   239 N    1.304   238 H    0.964
                           241 C    0.124
   238   1 H    0.998 --   237 C    0.964
   239   7 N    3.592 --   237 C    1.304   241 C    1.192   240 H    0.922
                           236 N    0.103
   240   1 H    0.952 --   239 N    0.922
   241   6 C    3.922 --   235 C    1.556   239 N    1.192   242 H    0.958
                           237 C    0.124
   242   1 H    0.996 --   241 C    0.958
   243   6 C    3.878 --   244 O    1.878   230 C    0.992   296 H    0.940
   244   8 O    2.049 --   243 C    1.878
   245   7 N    2.982 --   247 C    1.027   246 H    0.943   297 H    0.942
   246   1 H    0.969 --   245 N    0.943
   247   6 C    3.968 --   245 N    1.027   249 C    0.953   248 H    0.939
                           262 C    0.932
   248   1 H    0.994 --   247 C    0.939
   249   6 C    3.974 --   251 C    1.006   255 C    0.994   250 H    0.964
                           247 C    0.953
   250   1 H    0.996 --   249 C    0.964
   251   6 C    3.994 --   249 C    1.006   252 H    0.980   254 H    0.977
                           253 H    0.977
   252   1 H    0.997 --   251 C    0.980
   253   1 H    0.998 --   251 C    0.977
   254   1 H    0.999 --   251 C    0.977
   255   6 C    3.991 --   258 C    1.017   249 C    0.994   256 H    0.975
                           257 H    0.970
   256   1 H    0.999 --   255 C    0.975
   257   1 H    0.996 --   255 C    0.970
   258   6 C    3.994 --   255 C    1.017   259 H    0.987   260 H    0.986
                           261 H    0.985
   259   1 H    0.999 --   258 C    0.987
   260   1 H    0.998 --   258 C    0.986
   261   1 H    0.999 --   258 C    0.985
   262   6 C    3.939 --   263 O    1.619   264 N    1.303   247 C    0.932
   263   8 O    1.934 --   262 C    1.619   264 N    0.194
   264   7 N    3.474 --   262 C    1.303   266 C    0.980   265 H    0.899
                           263 O    0.194
   265   1 H    0.947 --   264 N    0.899
   266   6 C    3.964 --   281 C    0.981   264 N    0.980   267 H    0.952
Note: The following floating-point exceptions are signalling: IEEE_UNDERFLOW_FLAG IEEE_DENORMAL
normal termination of xtb
                           268 C    0.941
   267   1 H    0.995 --   266 C    0.952
   268   6 C    3.982 --   270 C    1.005   274 C    0.996   269 H    0.953
                           266 C    0.941
   269   1 H    0.996 --   268 C    0.953
   270   6 C    3.990 --   268 C    1.005   273 H    0.984   271 H    0.983
                           272 H    0.980
   271   1 H    0.997 --   270 C    0.983
   272   1 H    0.996 --   270 C    0.980
   273   1 H    0.999 --   270 C    0.984
   274   6 C    3.993 --   277 C    1.013   268 C    0.996   276 H    0.974
                           275 H    0.965
   275   1 H    0.999 --   274 C    0.965
   276   1 H    0.998 --   274 C    0.974
   277   6 C    3.993 --   274 C    1.013   279 H    0.987   280 H    0.984
                           278 H    0.983
   278   1 H    0.997 --   277 C    0.983
   279   1 H    0.998 --   277 C    0.987
   280   1 H    0.997 --   277 C    0.984
   281   6 C    3.878 --   282 O    1.891   266 C    0.981   298 H    0.937
   282   8 O    2.059 --   281 C    1.891
   283   1 H    0.958 --    60 N    0.944
   284   1 H    0.993 --    79 C    0.936
   285   1 H    0.961 --    81 N    0.947
   286   1 H    0.993 --   111 C    0.937
   287   1 H    0.963 --   113 N    0.948
   288   1 H    0.991 --   135 C    0.934
   289   1 H    0.964 --   137 N    0.950
   290   1 H    0.994 --   155 C    0.935
   291   1 H    0.965 --   157 N    0.950
   292   1 H    0.996 --   205 C    0.937
   293   1 H    0.967 --   207 N    0.952
   294   1 H    0.994 --   226 C    0.935
   295   1 H    0.964 --   228 N    0.951
   296   1 H    0.993 --   243 C    0.940
   297   1 H    0.958 --   245 N    0.942
   298   1 H    0.992 --   281 C    0.937
 ---------------------------------------------------------------------------

Topologies differ in total number of bonds
Writing topology from bond orders to xtbtopo.mol

molecular dipole:
                 x           y           z       tot (Debye)
 q only:      -25.480      -5.134     -19.595
   full:      -24.291      -5.815     -19.541      80.606
molecular quadrupole (traceless):
                xx          xy          yy          xz          yz          zz
 q only:     -185.899   -1619.952    2615.135   -4969.530   -1792.862   -2429.236
  q+dip:      -85.012   -1597.577    2524.654   -4789.039   -1869.270   -2439.642
   full:      -79.565   -1598.734    2524.852   -4791.642   -1864.701   -2445.287


           -------------------------------------------------
          | TOTAL ENERGY             -452.782868926289 Eh   |
          | GRADIENT NORM               0.340284307637 Eh/α |
          | HOMO-LUMO GAP               0.278338574424 eV   |
           -------------------------------------------------

------------------------------------------------------------------------
 * finished run on 2026/01/05 at 09:06:50.461     
------------------------------------------------------------------------
 total:
 * wall-time:     0 d,  0 h,  0 min,  2.931 sec
 *  cpu-time:     0 d,  0 h,  0 min, 42.073 sec
 * ratio c/w:    14.356 speedup
 SCF:
 * wall-time:     0 d,  0 h,  0 min,  2.833 sec
 *  cpu-time:     0 d,  0 h,  0 min, 40.613 sec
 * ratio c/w:    14.336 speedup

