      -----------------------------------------------------------      
     |                   =====================                   |     
     |                           x T B                           |     
     |                   =====================                   |     
     |                         S. Grimme                         |     
     |          Mulliken Center for Theoretical Chemistry        |     
     |                    University of Bonn                     |     
      -----------------------------------------------------------      

   * xtb version 6.7.1 (edcfbbe) compiled by 'conda@c0858423619e' on 2025-09-04

   xtb is free software: you can redistribute it and/or modify it under
   the terms of the GNU Lesser General Public License as published by
   the Free Software Foundation, either version 3 of the License, or
   (at your option) any later version.
   
   xtb is distributed in the hope that it will be useful,
   but WITHOUT ANY WARRANTY; without even the implied warranty of
   MERCHANTABILITY or FITNESS FOR A PARTICULAR PURPOSE.  See the
   GNU Lesser General Public License for more details.
   
   Cite this work as:
   * C. Bannwarth, E. Caldeweyher, S. Ehlert, A. Hansen, P. Pracht,
     J. Seibert, S. Spicher, S. Grimme, WIREs Comput. Mol. Sci., 2020, 11,
     e01493. DOI: 10.1002/wcms.1493
   
   for GFN2-xTB:
   * C. Bannwarth, S. Ehlert and S. Grimme., J. Chem. Theory Comput., 2019,
     15, 1652-1671. DOI: 10.1021/acs.jctc.8b01176
   for GFN1-xTB:
   * S. Grimme, C. Bannwarth, P. Shushkov, J. Chem. Theory Comput., 2017,
     13, 1989-2009. DOI: 10.1021/acs.jctc.7b00118
   for GFN0-xTB:
   * P. Pracht, E. Caldeweyher, S. Ehlert, S. Grimme, ChemRxiv, 2019, preprint.
     DOI: 10.26434/chemrxiv.8326202.v1
   for GFN-FF:
   * S. Spicher and S. Grimme, Angew. Chem. Int. Ed., 2020, 59, 15665-15673.
     DOI: 10.1002/anie.202004239
   
   for ALPB and GBSA implicit solvation:
   * S. Ehlert, M. Stahn, S. Spicher, S. Grimme, J. Chem. Theory Comput.,
     2021, 17, 4250-4261. DOI: 10.1021/acs.jctc.1c00471
   
   for ddCOSMO and CPCM-X implicit solvation:
   * M. Stahn, S. Ehlert, S. Grimme, J. Phys. Chem. A,
     2023, XX, XXXX-XXXX. DOI: 10.1021/acs.jpca.3c04382
   
   for DFT-D4:
   * E. Caldeweyher, C. Bannwarth and S. Grimme, J. Chem. Phys., 2017,
     147, 034112. DOI: 10.1063/1.4993215
   * E. Caldeweyher, S. Ehlert, A. Hansen, H. Neugebauer, S. Spicher,
     C. Bannwarth and S. Grimme, J. Chem. Phys., 2019, 150, 154122.
     DOI: 10.1063/1.5090222
   * E. Caldeweyher, J.-M. Mewes, S. Ehlert and S. Grimme, Phys. Chem. Chem. Phys.
     2020, 22, 8499-8512. DOI: 10.1039/D0CP00502A
   
   for sTDA-xTB:
   * S. Grimme and C. Bannwarth, J. Chem. Phys., 2016, 145, 054103.
     DOI: 10.1063/1.4959605
   
   in the mass-spec context:
   * V. Asgeirsson, C. Bauer and S. Grimme, Chem. Sci., 2017, 8, 4879.
     DOI: 10.1039/c7sc00601b
   * J. Koopman and S. Grimme, ACS Omega 2019, 4, 12, 15120-15133.
     DOI: 10.1021/acsomega.9b02011
   
   for metadynamics refer to:
   * S. Grimme, J. Chem. Theory Comput., 2019, 155, 2847-2862
     DOI: 10.1021/acs.jctc.9b00143
   
   for SPH calculations refer to:
   * S. Spicher and S. Grimme, J. Chem. Theory Comput., 2021, 17, 1701-1714
     DOI: 10.1021/acs.jctc.0c01306
   
   for ONIOM refer to:
   * C. Plett, A. Katbashev, S. Ehlert, S. Grimme, M. Bursch,
     Phys. Chem. Chem. Phys., 2023, 25, 17860-17868. DOI: 10.1039/D3CP02178E
   
   for DIPRO refer to:
   * J. Kohn, N. Gildemeister, S. Grimme, D. Fazzi, A. Hansen,
     J. Chem. Phys., 2023, just accepted.
   
   for PTB refer to:
   * S. Grimme, M. Mueller, A. Hansen, J. Chem. Phys., 2023, 158, 124111.
     DOI: 10.1063/5.0137838
   
   with help from (in alphabetical order)
   P. Atkinson, C. Bannwarth, F. Bohle, G. Brandenburg, E. Caldeweyher
   M. Checinski, S. Dohm, S. Ehlert, S. Ehrlich, I. Gerasimov, C. Hölzer
   A. Katbashev, J. Kohn, J. Koopman, C. Lavigne, S. Lehtola, F. März, M. Müller,
   F. Musil, H. Neugebauer, J. Pisarek, C. Plett, P. Pracht, F. Pultar,
   J. Seibert, P. Shushkov, S. Spicher, M. Stahn, M. Steiner, T. Strunk,
   J. Stückrath, T. Rose, and J. Unsleber
   
 * started run on 2026/01/05 at 09:07:33.094     
   ID    Z sym.   atoms
    1    7 N      1, 22, 42, 54, 67, 70, 73, 78, 98, 114, 120, 140, 155, 171,
                  192, 200, 203, 209, 228
    2    1 H      2, 4, 6, 7, 10, 12, 15, 17, 19, 23, 25, 27, 28, 31, 33, 35,
                  37, 39, 43, 45, 47, 48, 55, 57, 59, 60, 62, 63, 65, 66, 68,
                  71, 72, 74, 75, 79, 81, 83, 84, 87, 89, 91, 93, 95, 99,
                  101, 103, 104, 106, 107, 109, 110, 112, 113, 115-117, 121,
                  123, 125, 126, 129, 131, 133, 135, 137, 141, 143, 145, 146,
                  148, 149, 156, 158, 160, 162-164, 166-168, 172, 174, 176,
                  177, 180, 182, 185, 187, 189, 193, 195, 197, 198, 202, 204,
                  206, 210, 212, 214, 216-218, 220, 221, 223-225, 229, 231,
                  233, 235-237, 239, 240, 242-244, 247-262
    3    6 C      3, 5, 8, 9, 11, 13, 16, 18, 20, 24, 26, 29, 30, 32, 34, 36,
                  38, 40, 44, 46, 49, 52, 56, 58, 61, 64, 69, 76, 80, 82, 85,
                  86, 88, 90, 92, 94, 96, 100, 102, 105, 108, 111, 118, 122,
                  124, 127, 128, 130, 132, 134, 136, 138, 142, 144, 147, 150,
                  153, 157, 159, 161, 165, 169, 173, 175, 178, 179, 181, 183,
                  186, 188, 190, 194, 196, 199, 201, 205, 207, 211, 213, 215,
                  219, 222, 226, 230, 232, 234, 238, 241, 245
    4    8 O      14, 21, 41, 50, 51, 53, 77, 97, 119, 139, 151, 152, 154,
                  170, 184, 191, 208, 227, 246

           -------------------------------------------------
          |                Calculation Setup                |
           -------------------------------------------------

          program call               : xtb /home/antonio_mesquita/Documentos/gmx_ISA_project/testes_arquivos_primeiros/gmx_ISA_testes/testes_qm_xtb/QM_analysis/QM_FRAMES_CAPPED/frame_400ps/residues_pocket_capped_400ps.xyz --gfn 2 --alpb water --chrg 0 --etemp 1500 --cycles 1000
          coordinate file            : /home/antonio_mesquita/Documentos/gmx_ISA_project/testes_arquivos_primeiros/gmx_ISA_testes/testes_qm_xtb/QM_analysis/QM_FRAMES_CAPPED/frame_400ps/residues_pocket_capped_400ps.xyz
          omp threads                :                    16


molecular fragmentation (1/2 indicates fragments):
111111111111111111111222222222222222222222222222222222222222222222222222
222222222222222222222222222222222222222222222222222222222222222222222222
222222222222222222222222222222222222222222222222222222222222222222222222
2222222222222222222222222222221122222222222222
# atoms in fragment 1/2:    23   239
 fragment masses (1/2) :      165.19     1609.95
CMA distance (Bohr)    :  13.571
constraining FC (au)   :  0.0500

           -------------------------------------------------
          |                 G F N 2 - x T B                 |
           -------------------------------------------------

        Reference                      10.1021/acs.jctc.8b01176
      * Hamiltonian:
        H0-scaling (s, p, d)           1.850000    2.230000    2.230000
        zeta-weighting                 0.500000
      * Dispersion:
        s8                             2.700000
        a1                             0.520000
        a2                             5.000000
        s9                             5.000000
      * Repulsion:
        kExp                           1.500000    1.000000
        rExp                           1.000000
      * Coulomb:
        alpha                          2.000000
        third order                    shell-resolved
        anisotropic                    true
        a3                             3.000000
        a5                             4.000000
        cn-shift                       1.200000
        cn-exp                         4.000000
        max-rad                        5.000000

      * Solvation model:               ALPB
        Solvent                        water
        Parameter file                 internal GFN2-xTB/ALPB
        Dielectric constant                8.0200E+01
        Reference state                gsolv [1 M gas/solution]
        Free energy shift                  1.0808E-03 Eh       6.7819E-01 kcal/mol
        Temperature                        2.9815E+02 K
        Density                            1.0000E+00 kg/L
        Solvent mass                       1.8000E+01 g/mol
        Interaction kernel             P16
        Born radius scaling (c1)           1.4744E+00
        Born radii integrator          GBOBC
        Born offset                        0.0000E+00 a0       0.0000E+00 AA
        H-bond correction              true
        Ion screening                  false
        Surface tension                    1.0000E-05 Eh       1.5569E+01 dyn/cm
        Grid points                               230 per atom

          ...................................................
          :                      SETUP                      :
          :.................................................:
          :  # basis functions                 643          :
          :  # atomic orbitals                 643          :
          :  # shells                          389          :
          :  # electrons                       700          :
          :  max. iterations                   250          :
          :  Hamiltonian                  GFN2-xTB          :
          :  restarted?                      false          :
          :  GBSA solvation                   true          :
          :  PC potential                    false          :
          :  electronic temp.         1500.0000000     K    :
          :  accuracy                    1.0000000          :
          :  -> integral cutoff          0.2500000E+02      :
          :  -> integral neglect         0.1000000E-07      :
          :  -> SCF convergence          0.1000000E-05 Eh   :
          :  -> wf. convergence          0.1000000E-03 e    :
          :  Broyden damping             0.4000000          :
          :  net charge                          0          :
          :  unpaired electrons                  0          :
          ...................................................

 iter      E             dE          RMSdq      gap      omega  full diag
   1   -396.0730793 -0.396073E+03  0.444E+00    1.87       0.0  T
   2   -396.8655012 -0.792422E+00  0.230E+00    1.10       1.0  T
   3   -396.8901145 -0.246133E-01  0.124E+00    1.67       1.0  T
   4   -396.9349422 -0.448277E-01  0.292E-01    1.20       1.0  T
   5   -396.9449251 -0.998292E-02  0.114E-01    1.28       1.0  T
   6   -396.9456157 -0.690573E-03  0.622E-02    1.27       1.0  T
   7   -396.9458268 -0.211166E-03  0.268E-02    1.26       1.0  T
   8   -396.9458576 -0.307085E-04  0.883E-03    1.26       1.0  T
   9   -396.9458621 -0.456893E-05  0.458E-03    1.25       1.3  T
  10   -396.9458631 -0.983454E-06  0.215E-03    1.25       2.9  T
  11   -396.9458634 -0.256031E-06  0.981E-04    1.25       6.3  T
  12   -396.9458634 -0.669344E-07  0.469E-04    1.25      13.2  T

   *** convergence criteria satisfied after 12 iterations ***

         #    Occupation            Energy/Eh            Energy/eV
      -------------------------------------------------------------
         1        2.0000           -0.7358572             -20.0237
       ...           ...                  ...                  ...
       344        1.9981           -0.3487049              -9.4887
       345        1.9964           -0.3456619              -9.4059
       346        1.9963           -0.3455483              -9.4028
       347        1.9946           -0.3437670              -9.3544
       348        1.9928           -0.3423516              -9.3159
       349        1.9906           -0.3410978              -9.2817
       350        1.9842           -0.3386151              -9.2142 (HOMO)
       351        0.0155           -0.2926303              -7.9629 (LUMO)
       352        0.0123           -0.2915204              -7.9327
       353        0.0075           -0.2891780              -7.8689
       354        0.0069           -0.2887496              -7.8573
       355        0.0036           -0.2856254              -7.7723
       ...           ...                  ...                  ...
       643                          0.6428903              17.4939
      -------------------------------------------------------------
                  HL-Gap            0.0459848 Eh            1.2513 eV
             Fermi-level           -0.3156661 Eh           -8.5897 eV

 SCC (total)                   0 d,  0 h,  0 min,  2.573 sec
 SCC setup                      ...        0 min,  0.010 sec (  0.389%)
 Dispersion                     ...        0 min,  0.020 sec (  0.771%)
 classical contributions        ...        0 min,  0.004 sec (  0.156%)
 integral evaluation            ...        0 min,  0.056 sec (  2.171%)
 iterations                     ...        0 min,  2.252 sec ( 87.524%)
 molecular gradient             ...        0 min,  0.224 sec (  8.722%)
 printout                       ...        0 min,  0.007 sec (  0.266%)

         :::::::::::::::::::::::::::::::::::::::::::::::::::::
         ::                     SUMMARY                     ::
         :::::::::::::::::::::::::::::::::::::::::::::::::::::
         :: total energy            -391.919175812762 Eh    ::
         :: total w/o Gsasa/hb      -391.873219347638 Eh    ::
         :: gradient norm              0.317525631264 Eh/a0 ::
         :: HOMO-LUMO gap              1.251310715088 eV    ::
         ::.................................................::
         :: SCC energy              -396.933475947638 Eh    ::
         :: -> isotropic ES            1.130549851313 Eh    ::
         :: -> anisotropic ES          0.011529028951 Eh    ::
         :: -> anisotropic XC          0.175335995606 Eh    ::
         :: -> dispersion             -0.283304853667 Eh    ::
         :: -> Gsolv                  -0.350217258967 Eh    ::
         ::    -> Gelec               -0.304260793843 Eh    ::
         ::    -> Gsasa                0.009262830483 Eh    ::
         ::    -> Ghb                 -0.056300055305 Eh    ::
         ::    -> Gshift               0.001080759698 Eh    ::
         :: repulsion energy           5.014300134876 Eh    ::
         :: add. restraining           0.000000000000 Eh    ::
         :: total charge              -0.000000000016 e     ::
         :::::::::::::::::::::::::::::::::::::::::::::::::::::

           -------------------------------------------------
          |                Property Printout                |
           -------------------------------------------------

    * Orbital Energies and Occupations

         #    Occupation            Energy/Eh            Energy/eV
      -------------------------------------------------------------
         1        2.0000           -0.7358572             -20.0237
       ...           ...                  ...                  ...
       338        2.0000           -0.3813553             -10.3772
       339        2.0000           -0.3727639             -10.1434
       340        2.0000           -0.3701288             -10.0717
       341        2.0000           -0.3674595              -9.9991
       342        1.9998           -0.3590755              -9.7709
       343        1.9991           -0.3520360              -9.5794
       344        1.9981           -0.3487049              -9.4887
       345        1.9964           -0.3456619              -9.4059
       346        1.9963           -0.3455483              -9.4028
       347        1.9946           -0.3437670              -9.3544
       348        1.9928           -0.3423516              -9.3159
       349        1.9906           -0.3410978              -9.2817
       350        1.9842           -0.3386151              -9.2142 (HOMO)
       351        0.0155           -0.2926303              -7.9629 (LUMO)
       352        0.0123           -0.2915204              -7.9327
       353        0.0075           -0.2891780              -7.8689
       354        0.0069           -0.2887496              -7.8573
       355        0.0036           -0.2856254              -7.7723
       356        0.0011           -0.2800996              -7.6219
       357        0.0008           -0.2784679              -7.5775
       358        0.0005           -0.2763847              -7.5208
       359                         -0.2308760              -6.2825
       360                         -0.2283286              -6.2131
       361                         -0.2254738              -6.1355
       ...                                ...                  ...
       643                          0.6428903              17.4939
      -------------------------------------------------------------
                  HL-Gap            0.0459848 Eh            1.2513 eV
             Fermi-level           -0.3156661 Eh           -8.5897 eV

     #   Z          covCN         q      C6AA      α(0)
     1   7 N        2.632    -0.369    29.512     8.068
     2   1 H        0.860     0.160     1.334     1.809
     3   6 C        3.785     0.038    19.944     6.361
     4   1 H        0.925     0.080     1.976     2.198
     5   6 C        3.815    -0.078    21.980     6.673
     6   1 H        0.924     0.069     2.097     2.264
     7   1 H        0.925     0.050     2.324     2.384
     8   6 C        2.971     0.002    27.979     8.676
     9   6 C        2.907    -0.048    29.203     8.861
    10   1 H        0.926     0.034     2.526     2.486
    11   6 C        2.923    -0.067    29.663     8.932
    12   1 H        0.925     0.014     2.824     2.628
    13   6 C        2.835     0.139    24.967     8.188
    14   8 O        1.659    -0.467    22.188     6.359
    15   1 H        0.805     0.342     0.608     1.224
    16   6 C        2.909    -0.065    29.627     8.925
    17   1 H        0.925     0.060     2.194     2.316
    18   6 C        2.915    -0.039    28.967     8.826
    19   1 H        0.925     0.053     2.280     2.361
    20   6 C        2.759     0.207    23.611     7.957
    21   8 O        0.856    -0.391    21.509     6.218
    22   7 N        2.632    -0.374    29.672     8.090
    23   1 H        0.861     0.159     1.344     1.816
    24   6 C        3.786     0.036    19.986     6.368
    25   1 H        0.924     0.061     2.188     2.313
    26   6 C        3.810    -0.069    21.817     6.649
    27   1 H        0.924     0.061     2.192     2.315
    28   1 H        0.925     0.043     2.406     2.426
    29   6 C        2.957     0.006    27.889     8.662
    30   6 C        2.929    -0.042    29.056     8.840
    31   1 H        0.926     0.040     2.452     2.449
    32   6 C        2.903    -0.038    28.939     8.821
    33   1 H        0.926     0.051     2.306     2.375
    34   6 C        2.916    -0.040    28.982     8.828
    35   1 H        0.925     0.042     2.424     2.435
    36   6 C        2.910    -0.038    28.934     8.820
    37   1 H        0.926     0.030     2.585     2.514
    38   6 C        2.917    -0.041    29.011     8.832
    39   1 H        0.926     0.017     2.782     2.608
    40   6 C        2.754     0.267    22.496     7.767
    41   8 O        0.861    -0.533    24.535     6.641
    42   7 N        2.695    -0.156    24.382     7.334
    43   1 H        0.860     0.211     1.050     1.605
    44   6 C        3.793     0.046    19.811     6.338
    45   1 H        0.924     0.088     1.901     2.156
    46   6 C        3.815    -0.084    22.084     6.689
    47   1 H        0.924     0.045     2.389     2.417
    48   1 H        0.925     0.060     2.200     2.320
    49   6 C        2.688     0.362    20.855     7.474
    50   8 O        0.857    -0.611    26.382     6.886
    51   8 O        0.857    -0.603    26.196     6.862
    52   6 C        2.758     0.206    23.624     7.959
    53   8 O        0.857    -0.363    20.964     6.139
    54   7 N        2.632    -0.382    29.880     8.118
    55   1 H        0.860     0.167     1.288     1.778
    56   6 C        3.785     0.034    20.016     6.373
    57   1 H        0.924     0.084     1.939     2.178
    58   6 C        3.813    -0.075    21.920     6.664
    59   1 H        0.925     0.070     2.085     2.258
    60   1 H        0.924     0.053     2.277     2.360
    61   6 C        3.805    -0.085    22.118     6.695
    62   1 H        0.924     0.066     2.131     2.283
    63   1 H        0.925     0.065     2.137     2.286
    64   6 C        3.740    -0.026    21.114     6.556
    65   1 H        0.924     0.083     1.947     2.182
    66   1 H        0.925     0.097     1.817     2.108
    67   7 N        2.694    -0.148    24.211     7.308
    68   1 H        0.860     0.235     0.942     1.520
    69   6 C        2.734     0.241    22.956     7.844
    70   7 N        2.650    -0.271    27.018     7.720
    71   1 H        0.861     0.237     0.936     1.515
    72   1 H        0.860     0.239     0.929     1.510
    73   7 N        2.659    -0.275    27.098     7.731
    74   1 H        0.860     0.248     0.890     1.478
    75   1 H        0.861     0.236     0.939     1.518
    76   6 C        2.759     0.198    23.782     7.986
    77   8 O        0.856    -0.398    21.649     6.238
    78   7 N        2.642    -0.369    29.533     8.071
    79   1 H        0.860     0.160     1.333     1.809
    80   6 C        3.787     0.036    19.987     6.368
    81   1 H        0.924     0.050     2.325     2.385
    82   6 C        3.813    -0.069    21.809     6.647
    83   1 H        0.924     0.059     2.213     2.326
    84   1 H        0.924     0.074     2.041     2.234
    85   6 C        2.954     0.009    27.821     8.651
    86   6 C        2.922    -0.037    28.915     8.818
    87   1 H        0.926     0.037     2.489     2.467
    88   6 C        2.908    -0.037    28.921     8.818
    89   1 H        0.926     0.036     2.499     2.472
    90   6 C        2.914    -0.043    29.063     8.840
    91   1 H        0.925     0.024     2.672     2.556
    92   6 C        2.906    -0.038    28.934     8.820
    93   1 H        0.926     0.032     2.561     2.503
    94   6 C        2.925    -0.043    29.067     8.841
    95   1 H        0.925     0.038     2.470     2.457
    96   6 C        2.755     0.264    22.544     7.775
    97   8 O        0.860    -0.523    24.302     6.609
    98   7 N        2.695    -0.164    24.539     7.357
    99   1 H        0.860     0.210     1.056     1.610
   100   6 C        3.802     0.019    20.260     6.408
   101   1 H        0.924     0.073     2.057     2.243
   102   6 C        3.804    -0.074    21.912     6.664
   103   1 H        0.924     0.060     2.202     2.321
   104   1 H        0.925     0.055     2.260     2.351
   105   6 C        3.806    -0.067    21.776     6.643
   106   1 H        0.924     0.058     2.218     2.329
   107   1 H        0.924     0.050     2.320     2.382
   108   6 C        3.803    -0.088    22.185     6.706
   109   1 H        0.925     0.090     1.880     2.144
   110   1 H        0.924     0.071     2.070     2.250
   111   6 C        3.735    -0.035    21.293     6.585
   112   1 H        0.925     0.101     1.780     2.086
   113   1 H        0.924     0.106     1.731     2.057
   114   7 N        3.489    -0.165    24.556     7.360
   115   1 H        0.860     0.309     0.688     1.299
   116   1 H        0.860     0.304     0.701     1.311
   117   1 H        0.860     0.314     0.674     1.286
   118   6 C        2.766     0.271    22.416     7.754
   119   8 O        0.857    -0.503    23.847     6.547
   120   7 N        2.691    -0.163    24.523     7.355
   121   1 H        0.860     0.227     0.977     1.548
   122   6 C        3.794     0.039    19.918     6.355
   123   1 H        0.924     0.098     1.803     2.100
   124   6 C        3.809    -0.060    21.654     6.624
   125   1 H        0.925     0.068     2.104     2.269
   126   1 H        0.924     0.050     2.323     2.384
   127   6 C        2.961     0.009    27.816     8.651
   128   6 C        2.910    -0.040    29.001     8.831
   129   1 H        0.926     0.029     2.603     2.523
   130   6 C        2.916    -0.035    28.869     8.811
   131   1 H        0.926     0.043     2.409     2.427
   132   6 C        2.913    -0.035    28.883     8.813
   133   1 H        0.926     0.048     2.350     2.397
   134   6 C        2.906    -0.035    28.866     8.810
   135   1 H        0.925     0.046     2.368     2.406
   136   6 C        2.920    -0.037    28.911     8.817
   137   1 H        0.926     0.029     2.603     2.523
   138   6 C        2.760     0.208    23.585     7.953
   139   8 O        0.856    -0.376    21.211     6.175
   140   7 N        2.629    -0.379    29.804     8.108
   141   1 H        0.860     0.164     1.309     1.792
   142   6 C        3.786     0.030    20.077     6.382
   143   1 H        0.925     0.050     2.316     2.380
   144   6 C        3.808    -0.050    21.466     6.595
   145   1 H        0.925     0.044     2.396     2.421
   146   1 H        0.924     0.036     2.509     2.477
   147   6 C        3.800    -0.086    22.134     6.698
   148   1 H        0.924     0.031     2.576     2.510
   149   1 H        0.924     0.039     2.459     2.452
   150   6 C        2.688     0.360    20.883     7.479
   151   8 O        0.859    -0.667    27.834     7.073
   152   8 O        0.858    -0.662    27.683     7.054
   153   6 C        2.751     0.261    22.605     7.785
   154   8 O        0.861    -0.538    24.645     6.656
   155   7 N        2.694    -0.162    24.506     7.352
   156   1 H        0.860     0.214     1.036     1.594
   157   6 C        3.796     0.027    20.121     6.387
   158   1 H        0.925     0.096     1.818     2.109
   159   6 C        3.857    -0.014    20.792     6.485
   160   1 H        0.925     0.055     2.262     2.352
   161   6 C        3.755    -0.109    22.633     6.783
   162   1 H        0.924     0.054     2.268     2.355
   163   1 H        0.924     0.042     2.417     2.431
   164   1 H        0.924     0.041     2.435     2.440
   165   6 C        3.754    -0.120    22.862     6.818
   166   1 H        0.924     0.040     2.445     2.445
   167   1 H        0.925     0.061     2.182     2.310
   168   1 H        0.924     0.051     2.305     2.374
   169   6 C        2.764     0.205    23.653     7.965
   170   8 O        0.856    -0.372    21.139     6.164
   171   7 N        2.631    -0.385    29.953     8.128
   172   1 H        0.860     0.168     1.286     1.776
   173   6 C        3.785     0.040    19.921     6.358
   174   1 H        0.926     0.079     1.991     2.207
   175   6 C        3.816    -0.071    21.843     6.652
   176   1 H        0.925     0.059     2.213     2.326
   177   1 H        0.924     0.052     2.295     2.369
   178   6 C        2.972     0.001    28.003     8.680
   179   6 C        2.912    -0.046    29.148     8.853
   180   1 H        0.925     0.044     2.399     2.422
   181   6 C        2.911    -0.077    29.931     8.971
   182   1 H        0.926     0.042     2.422     2.434
   183   6 C        2.830     0.143    24.871     8.172
   184   8 O        1.660    -0.458    21.999     6.332
   185   1 H        0.805     0.373     0.537     1.151
   186   6 C        2.918    -0.060    29.481     8.904
   187   1 H        0.925     0.043     2.411     2.428
   188   6 C        2.903    -0.040    28.997     8.829
   189   1 H        0.925     0.051     2.306     2.375
   190   6 C        2.759     0.199    23.754     7.981
   191   8 O        0.856    -0.400    21.686     6.243
   192   7 N        2.638    -0.354    29.125     8.015
   193   1 H        0.860     0.184     1.191     1.709
   194   6 C        3.787     0.046    19.812     6.340
   195   1 H        0.925     0.045     2.387     2.416
   196   6 C        3.809    -0.075    21.918     6.664
   197   1 H        0.924     0.046     2.367     2.406
   198   1 H        0.925     0.066     2.127     2.281
   199   6 C        3.267     0.049    25.686     8.177
   200   7 N        1.875    -0.318    29.101     7.997
   201   6 C        3.107     0.087    25.926     8.342
   202   1 H        0.925     0.050     2.318     2.381
   203   7 N        2.859    -0.106    23.314     7.171
   204   1 H        0.860     0.221     1.006     1.571
   205   6 C        2.948    -0.040    28.984     8.830
   206   1 H        0.926     0.044     2.402     2.424
   207   6 C        2.762     0.200    23.735     7.978
   208   8 O        0.859    -0.379    21.264     6.183
   209   7 N        2.631    -0.386    29.990     8.133
   210   1 H        0.860     0.154     1.377     1.838
   211   6 C        3.794     0.026    20.140     6.391
   212   1 H        0.924     0.049     2.338     2.391
   213   6 C        3.854    -0.027    21.015     6.520
   214   1 H        0.924     0.043     2.407     2.426
   215   6 C        3.757    -0.105    22.566     6.773
   216   1 H        0.926     0.043     2.410     2.428
   217   1 H        0.924     0.039     2.459     2.452
   218   1 H        0.924     0.024     2.676     2.558
   219   6 C        3.802    -0.057    21.602     6.617
   220   1 H        0.925     0.034     2.536     2.490
   221   1 H        0.924     0.016     2.801     2.617
   222   6 C        3.749    -0.112    22.706     6.796
   223   1 H        0.924     0.035     2.523     2.484
   224   1 H        0.924     0.044     2.402     2.424
   225   1 H        0.926     0.049     2.331     2.388
   226   6 C        2.755     0.274    22.370     7.745
   227   8 O        0.861    -0.516    24.135     6.587
   228   7 N        2.695    -0.155    24.343     7.328
   229   1 H        0.860     0.215     1.034     1.593
   230   6 C        3.811     0.031    20.047     6.373
   231   1 H        0.925     0.078     1.997     2.210
   232   6 C        3.861    -0.014    20.791     6.485
   233   1 H        0.924     0.058     2.220     2.330
   234   6 C        3.766    -0.120    22.831     6.810
   235   1 H        0.925     0.049     2.327     2.385
   236   1 H        0.924     0.053     2.284     2.363
   237   1 H        0.924     0.038     2.482     2.464
   238   6 C        3.806    -0.053    21.523     6.605
   239   1 H        0.924     0.022     2.706     2.573
   240   1 H        0.925     0.035     2.513     2.479
   241   6 C        3.749    -0.110    22.671     6.791
   242   1 H        0.925     0.049     2.335     2.390
   243   1 H        0.924     0.029     2.603     2.523
   244   1 H        0.924     0.058     2.221     2.330
   245   6 C        2.759     0.201    23.723     7.976
   246   8 O        0.858    -0.359    20.887     6.128
   247   1 H        0.860     0.193     1.144     1.676
   248   1 H        0.923     0.054     2.266     2.354
   249   1 H        0.860     0.185     1.187     1.707
   250   1 H        0.923     0.081     1.968     2.194
   251   1 H        0.860     0.178     1.224     1.733
   252   1 H        0.923     0.051     2.303     2.373
   253   1 H        0.860     0.182     1.204     1.719
   254   1 H        0.923     0.061     2.191     2.315
   255   1 H        0.860     0.181     1.210     1.723
   256   1 H        0.923     0.074     2.040     2.233
   257   1 H        0.860     0.180     1.213     1.725
   258   1 H        0.923     0.067     2.117     2.276
   259   1 H        0.860     0.168     1.286     1.776
   260   1 H        0.923     0.061     2.188     2.313
   261   1 H        0.860     0.187     1.176     1.699
   262   1 H        0.923     0.077     2.010     2.217

 Mol. C6AA /au·bohr⁶  :     663218.881051
 Mol. C8AA /au·bohr⁸  :   15008423.017459
 Mol. α(0) /au        :       1241.536518


Wiberg/Mayer (AO) data.
largest (>0.10) Wiberg bond orders for each atom

 ---------------------------------------------------------------------------
     #   Z sym  total        # sym  WBO       # sym  WBO       # sym  WBO
 ---------------------------------------------------------------------------
     1   7 N    3.021 --     3 C    1.033     2 H    0.961   247 H    0.948
     2   1 H    0.974 --     1 N    0.961
     3   6 C    3.987 --     1 N    1.033    20 C    0.994     4 H    0.938
                             5 C    0.930
     4   1 H    0.993 --     3 C    0.938
     5   6 C    3.986 --     8 C    1.006     7 H    0.969     6 H    0.965
                             3 C    0.930
     6   1 H    0.995 --     5 C    0.965
     7   1 H    0.997 --     5 C    0.969
     8   6 C    3.987 --    18 C    1.409     9 C    1.408     5 C    1.006
     9   6 C    3.988 --    11 C    1.447     8 C    1.408    10 H    0.967
                            16 C    0.110
    10   1 H    0.999 --     9 C    0.967
    11   6 C    3.988 --     9 C    1.447    13 C    1.372    12 H    0.971
                            18 C    0.106
    12   1 H    0.999 --    11 C    0.971
    13   6 C    3.935 --    11 C    1.372    16 C    1.370    14 O    1.061
    14   8 O    2.045 --    13 C    1.061    15 H    0.811
    15   1 H    0.883 --    14 O    0.811
    16   6 C    3.982 --    18 C    1.447    13 C    1.370    17 H    0.962
                             9 C    0.110
    17   1 H    0.996 --    16 C    0.962
    18   6 C    3.987 --    16 C    1.447     8 C    1.409    19 H    0.964
                            11 C    0.106
    19   1 H    0.997 --    18 C    0.964
    20   6 C    3.893 --    21 O    1.871     3 C    0.994   248 H    0.937
    21   8 O    2.036 --    20 C    1.871
    22   7 N    3.025 --    24 C    1.030    23 H    0.957   249 H    0.951
    23   1 H    0.975 --    22 N    0.957
    24   6 C    3.983 --    22 N    1.030    25 H    0.956    26 C    0.954
                            40 C    0.938
    25   1 H    0.995 --    24 C    0.956
    26   6 C    3.992 --    29 C    1.009    28 H    0.966    27 H    0.966
                            24 C    0.954
    27   1 H    0.995 --    26 C    0.966
    28   1 H    0.998 --    26 C    0.966
    29   6 C    3.985 --    38 C    1.416    30 C    1.406    26 C    1.009
                            34 C    0.109
    30   6 C    3.990 --    32 C    1.450    29 C    1.406    31 H    0.968
                            36 C    0.109
    31   1 H    0.998 --    30 C    0.968
    32   6 C    3.989 --    30 C    1.450    34 C    1.426    33 H    0.970
                            38 C    0.112
    33   1 H    0.997 --    32 C    0.970
    34   6 C    3.984 --    36 C    1.444    32 C    1.426    35 H    0.969
                            29 C    0.109
    35   1 H    0.998 --    34 C    0.969
    36   6 C    3.990 --    34 C    1.444    38 C    1.434    37 H    0.972
                            30 C    0.109
    37   1 H    0.999 --    36 C    0.972
    38   6 C    3.991 --    36 C    1.434    29 C    1.416    39 H    0.968
                            32 C    0.112
    39   1 H    1.000 --    38 C    0.968
    40   6 C    3.936 --    41 O    1.607    42 N    1.309    24 C    0.938
    41   8 O    1.908 --    40 C    1.607    42 N    0.190
    42   7 N    3.479 --    40 C    1.309    44 C    0.983    43 H    0.915
                            41 O    0.190
    43   1 H    0.955 --    42 N    0.915
    44   6 C    3.972 --    52 C    0.991    42 N    0.983    45 H    0.944
                            46 C    0.942
    45   1 H    0.992 --    44 C    0.944
    46   6 C    3.982 --    47 H    0.973    48 H    0.957    44 C    0.942
                            49 C    0.940
    47   1 H    0.998 --    46 C    0.973
    48   1 H    0.996 --    46 C    0.957
    49   6 C    3.936 --    51 O    1.490    50 O    1.457    46 C    0.940
    50   8 O    1.848 --    49 C    1.457    51 O    0.208
    51   8 O    1.863 --    49 C    1.490    50 O    0.208
    52   6 C    3.881 --    53 O    1.892    44 C    0.991   250 H    0.935
    53   8 O    2.046 --    52 C    1.892
    54   7 N    3.016 --    56 C    1.028    55 H    0.956   251 H    0.952
    55   1 H    0.972 --    54 N    0.956
    56   6 C    3.983 --    54 N    1.028    76 C    0.984    58 C    0.973
                            57 H    0.913
    57   1 H    0.993 --    56 C    0.913
    58   6 C    3.990 --    61 C    1.006    56 C    0.973    60 H    0.971
                            59 H    0.970
    59   1 H    0.995 --    58 C    0.970
    60   1 H    0.997 --    58 C    0.971
    61   6 C    3.991 --    58 C    1.006    64 C    0.998    63 H    0.971
                            62 H    0.970
    62   1 H    0.996 --    61 C    0.970
    63   1 H    0.995 --    61 C    0.971
    64   6 C    3.954 --    61 C    0.998    67 N    0.981    65 H    0.966
                            66 H    0.963
    65   1 H    0.993 --    64 C    0.966
    66   1 H    0.991 --    64 C    0.963
    67   7 N    3.441 --    69 C    1.298    64 C    0.981    68 H    0.910
    68   1 H    0.944 --    67 N    0.910
    69   6 C    3.974 --    70 N    1.333    73 N    1.310    67 N    1.298
    70   7 N    3.396 --    69 C    1.333    71 H    0.919    72 H    0.859
                            73 N    0.106
    71   1 H    0.944 --    70 N    0.919
    72   1 H    0.943 --    70 N    0.859
    73   7 N    3.381 --    69 C    1.310    74 H    0.918    75 H    0.889
                            70 N    0.106
    74   1 H    0.938 --    73 N    0.918
    75   1 H    0.944 --    73 N    0.889
    76   6 C    3.878 --    77 O    1.872    56 C    0.984   252 H    0.937
    77   8 O    2.030 --    76 C    1.872
    78   7 N    3.018 --    80 C    1.016    79 H    0.955   253 H    0.951
    79   1 H    0.974 --    78 N    0.955
    80   6 C    3.984 --    78 N    1.016    82 C    0.970    81 H    0.959
                            96 C    0.937
    81   1 H    0.997 --    80 C    0.959
    82   6 C    3.990 --    85 C    1.009    80 C    0.970    83 H    0.964
                            84 H    0.957
    83   1 H    0.996 --    82 C    0.964
    84   1 H    0.994 --    82 C    0.957
    85   6 C    3.986 --    94 C    1.412    86 C    1.406    82 C    1.009
                            90 C    0.112
    86   6 C    3.990 --    88 C    1.446    85 C    1.406    87 H    0.968
                            92 C    0.111
    87   1 H    0.999 --    86 C    0.968
    88   6 C    3.990 --    86 C    1.446    90 C    1.435    89 H    0.970
                            94 C    0.109
    89   1 H    0.998 --    88 C    0.970
    90   6 C    3.990 --    88 C    1.435    92 C    1.434    91 H    0.967
                            85 C    0.112
    91   1 H    0.999 --    90 C    0.967
    92   6 C    3.990 --    94 C    1.445    90 C    1.434    93 H    0.972
                            86 C    0.111
    93   1 H    0.999 --    92 C    0.972
    94   6 C    3.989 --    92 C    1.445    85 C    1.412    95 H    0.969
                            88 C    0.109
    95   1 H    0.998 --    94 C    0.969
    96   6 C    3.936 --    97 O    1.613    98 N    1.300    80 C    0.937
    97   8 O    1.916 --    96 C    1.613    98 N    0.192
    98   7 N    3.474 --    96 C    1.300   100 C    0.984    99 H    0.918
                            97 O    0.192
    99   1 H    0.956 --    98 N    0.918
   100   6 C    3.967 --    98 N    0.984   102 C    0.962   101 H    0.950
                           118 C    0.942
   101   1 H    0.995 --   100 C    0.950
   102   6 C    3.985 --   105 C    1.005   104 H    0.975   103 H    0.972
                           100 C    0.962
   103   1 H    0.996 --   102 C    0.972
   104   1 H    0.997 --   102 C    0.975
   105   6 C    3.991 --   108 C    1.006   102 C    1.005   107 H    0.974
                           106 H    0.972
   106   1 H    0.997 --   105 C    0.972
   107   1 H    0.997 --   105 C    0.974
   108   6 C    3.986 --   105 C    1.006   111 C    1.006   110 H    0.972
                           109 H    0.968
   109   1 H    0.991 --   108 C    0.968
   110   1 H    0.995 --   108 C    0.972
   111   6 C    3.924 --   108 C    1.006   112 H    0.969   114 N    0.966
                           113 H    0.964
   112   1 H    0.990 --   111 C    0.969
   113   1 H    0.989 --   111 C    0.964
   114   7 N    3.640 --   111 C    0.966   116 H    0.888   115 H    0.885
                           117 H    0.883
   115   1 H    0.904 --   114 N    0.885
   116   1 H    0.907 --   114 N    0.888
   117   1 H    0.902 --   114 N    0.883
   118   6 C    3.945 --   119 O    1.628   120 N    1.303   100 C    0.942
   119   8 O    1.943 --   118 C    1.628   120 N    0.196
   120   7 N    3.475 --   118 C    1.303   122 C    0.990   121 H    0.908
                           119 O    0.196
   121   1 H    0.948 --   120 N    0.908
   122   6 C    3.973 --   138 C    1.004   120 N    0.990   124 C    0.939
                           123 H    0.919
   123   1 H    0.990 --   122 C    0.919
   124   6 C    3.983 --   127 C    1.005   125 H    0.964   126 H    0.961
                           122 C    0.939
   125   1 H    0.995 --   124 C    0.964
   126   1 H    0.997 --   124 C    0.961
   127   6 C    3.986 --   128 C    1.420   136 C    1.409   124 C    1.005
                           132 C    0.106
   128   6 C    3.990 --   130 C    1.430   127 C    1.420   129 H    0.969
                           134 C    0.115
   129   1 H    0.999 --   128 C    0.969
   130   6 C    3.989 --   132 C    1.448   128 C    1.430   131 H    0.970
                           136 C    0.111
   131   1 H    0.998 --   130 C    0.970
   132   6 C    3.990 --   130 C    1.448   134 C    1.431   133 H    0.970
                           127 C    0.106
   133   1 H    0.997 --   132 C    0.970
   134   6 C    3.989 --   136 C    1.445   132 C    1.431   135 H    0.969
                           128 C    0.115
   135   1 H    0.998 --   134 C    0.969
   136   6 C    3.991 --   134 C    1.445   127 C    1.409   137 H    0.969
                           130 C    0.111
   137   1 H    0.999 --   136 C    0.969
   138   6 C    3.891 --   139 O    1.868   122 C    1.004   254 H    0.943
   139   8 O    2.035 --   138 C    1.868
   140   7 N    3.025 --   142 C    1.022   141 H    0.959   255 H    0.952
   141   1 H    0.973 --   140 N    0.959
   142   6 C    3.984 --   140 N    1.022   144 C    0.978   143 H    0.943
                           153 C    0.942
   143   1 H    0.997 --   142 C    0.943
   144   6 C    3.992 --   147 C    1.007   142 C    0.978   146 H    0.974
                           145 H    0.974
   145   1 H    0.997 --   144 C    0.974
   146   1 H    0.999 --   144 C    0.974
   147   6 C    3.991 --   144 C    1.007   148 H    0.968   149 H    0.956
                           150 C    0.946
   148   1 H    0.999 --   147 C    0.968
   149   1 H    0.998 --   147 C    0.956
   150   6 C    3.935 --   151 O    1.487   152 O    1.473   147 C    0.946
   151   8 O    1.766 --   150 C    1.487   152 O    0.208
   152   8 O    1.760 --   150 C    1.473   151 O    0.208
   153   6 C    3.941 --   154 O    1.606   155 N    1.303   142 C    0.942
   154   8 O    1.907 --   153 C    1.606   155 N    0.190
   155   7 N    3.474 --   153 C    1.303   157 C    0.990   156 H    0.904
                           154 O    0.190
   156   1 H    0.954 --   155 N    0.904
   157   6 C    3.967 --   169 C    0.991   155 N    0.990   159 C    0.935
                           158 H    0.932
   158   1 H    0.991 --   157 C    0.932
   159   6 C    3.987 --   165 C    1.009   161 C    1.004   160 H    0.967
                           157 C    0.935
   160   1 H    0.996 --   159 C    0.967
   161   6 C    3.993 --   159 C    1.004   163 H    0.984   164 H    0.979
                           162 H    0.975
   162   1 H    0.996 --   161 C    0.975
   163   1 H    0.998 --   161 C    0.984
   164   1 H    0.998 --   161 C    0.979
   165   6 C    3.992 --   159 C    1.009   167 H    0.983   166 H    0.983
                           168 H    0.981
   166   1 H    0.998 --   165 C    0.983
   167   1 H    0.996 --   165 C    0.983
   168   1 H    0.997 --   165 C    0.981
   169   6 C    3.888 --   170 O    1.885   157 C    0.991   256 H    0.935
   170   8 O    2.050 --   169 C    1.885
   171   7 N    3.016 --   173 C    1.030   172 H    0.958   257 H    0.953
   172   1 H    0.972 --   171 N    0.958
   173   6 C    3.985 --   171 N    1.030   190 C    0.980   175 C    0.947
                           174 H    0.932
   174   1 H    0.993 --   173 C    0.932
   175   6 C    3.988 --   178 C    1.012   177 H    0.971   176 H    0.956
                           173 C    0.947
   176   1 H    0.995 --   175 C    0.956
   177   1 H    0.997 --   175 C    0.971
   178   6 C    3.987 --   179 C    1.407   188 C    1.404   175 C    1.012
   179   6 C    3.987 --   181 C    1.448   178 C    1.407   180 H    0.965
                           186 C    0.106
   180   1 H    0.998 --   179 C    0.965
   181   6 C    3.986 --   179 C    1.448   183 C    1.367   182 H    0.966
                           188 C    0.107
   182   1 H    0.998 --   181 C    0.966
   183   6 C    3.933 --   181 C    1.367   186 C    1.358   184 O    1.079
   184   8 O    2.078 --   183 C    1.079   185 H    0.839
   185   1 H    0.860 --   184 O    0.839
   186   6 C    3.985 --   188 C    1.456   183 C    1.358   187 H    0.969
                           179 C    0.106
   187   1 H    0.998 --   186 C    0.969
   188   6 C    3.988 --   186 C    1.456   178 C    1.404   189 H    0.965
                           181 C    0.107
   189   1 H    0.997 --   188 C    0.965
   190   6 C    3.873 --   191 O    1.872   173 C    0.980   258 H    0.936
   191   8 O    2.026 --   190 C    1.872
   192   7 N    3.037 --   194 C    1.024   259 H    0.956   193 H    0.929
   193   1 H    0.966 --   192 N    0.929
   194   6 C    3.986 --   192 N    1.024   207 C    0.979   195 H    0.963
                           196 C    0.942
   195   1 H    0.997 --   194 C    0.963
   196   6 C    3.990 --   199 C    1.008   198 H    0.967   197 H    0.964
                           194 C    0.942
   197   1 H    0.998 --   196 C    0.964
   198   1 H    0.996 --   196 C    0.967
   199   6 C    3.973 --   205 C    1.567   200 N    1.274   196 C    1.008
   200   7 N    2.993 --   201 C    1.515   199 C    1.274   203 N    0.107
   201   6 C    3.957 --   200 N    1.515   203 N    1.306   202 H    0.962
                           205 C    0.121
   202   1 H    0.997 --   201 C    0.962
   203   7 N    3.590 --   201 C    1.306   205 C    1.185   204 H    0.922
                           200 N    0.107
   204   1 H    0.951 --   203 N    0.922
   205   6 C    3.927 --   199 C    1.567   203 N    1.185   206 H    0.965
                           201 C    0.121
   206   1 H    0.998 --   205 C    0.965
   207   6 C    3.871 --   208 O    1.880   194 C    0.979   260 H    0.940
   208   8 O    2.033 --   207 C    1.880
   209   7 N    3.003 --   211 C    1.022   210 H    0.954   261 H    0.948
   210   1 H    0.976 --   209 N    0.954
   211   6 C    3.983 --   209 N    1.022   212 H    0.956   213 C    0.954
                           226 C    0.944
   212   1 H    0.997 --   211 C    0.956
   213   6 C    3.993 --   215 C    1.008   219 C    0.993   214 H    0.964
                           211 C    0.954
   214   1 H    0.997 --   213 C    0.964
   215   6 C    3.993 --   213 C    1.008   216 H    0.983   217 H    0.980
                           218 H    0.979
   216   1 H    0.998 --   215 C    0.983
   217   1 H    0.998 --   215 C    0.980
   218   1 H    0.999 --   215 C    0.979
   219   6 C    3.995 --   222 C    1.016   213 C    0.993   221 H    0.977
                           220 H    0.976
   220   1 H    0.999 --   219 C    0.976
   221   1 H    1.000 --   219 C    0.977
   222   6 C    3.991 --   219 C    1.016   224 H    0.986   225 H    0.986
                           223 H    0.984
   223   1 H    0.998 --   222 C    0.984
   224   1 H    0.998 --   222 C    0.986
   225   1 H    0.998 --   222 C    0.986
   226   6 C    3.942 --   227 O    1.620   228 N    1.304   211 C    0.944
   227   8 O    1.928 --   226 C    1.620   228 N    0.192
   228   7 N    3.478 --   226 C    1.304   230 C    0.973   229 H    0.910
                           227 O    0.192
   229   1 H    0.954 --   228 N    0.910
   230   6 C    3.965 --   245 C    0.978   228 N    0.973   231 H    0.956
                           232 C    0.947
   231   1 H    0.994 --   230 C    0.956
   232   6 C    3.985 --   234 C    1.002   238 C    1.000   233 H    0.959
                           230 C    0.947
   233   1 H    0.997 --   232 C    0.959
   234   6 C    3.993 --   232 C    1.002   235 H    0.984   236 H    0.982
                           237 H    0.979
   235   1 H    0.997 --   234 C    0.984
   236   1 H    0.997 --   234 C    0.982
   237   1 H    0.999 --   234 C    0.979
   238   6 C    3.994 --   241 C    1.014   232 C    1.000   240 H    0.974
                           239 H    0.972
   239   1 H    1.000 --   238 C    0.972
   240   1 H    0.999 --   238 C    0.974
   241   6 C    3.989 --   238 C    1.014   244 H    0.984   243 H    0.984
                           242 H    0.983
   242   1 H    0.998 --   241 C    0.983
   243   1 H    0.998 --   241 C    0.984
   244   1 H    0.997 --   241 C    0.984
Note: The following floating-point exceptions are signalling: IEEE_UNDERFLOW_FLAG IEEE_DENORMAL
normal termination of xtb
   245   6 C    3.873 --   246 O    1.885   230 C    0.978   262 H    0.936
   246   8 O    2.053 --   245 C    1.885
   247   1 H    0.963 --     1 N    0.948
   248   1 H    0.997 --    20 C    0.937
   249   1 H    0.966 --    22 N    0.951
   250   1 H    0.993 --    52 C    0.935
   251   1 H    0.968 --    54 N    0.952
   252   1 H    0.997 --    76 C    0.937
   253   1 H    0.966 --    78 N    0.951
   254   1 H    0.995 --   138 C    0.943
   255   1 H    0.967 --   140 N    0.952
   256   1 H    0.994 --   169 C    0.935
   257   1 H    0.967 --   171 N    0.953
   258   1 H    0.995 --   190 C    0.936
   259   1 H    0.972 --   192 N    0.956
   260   1 H    0.996 --   207 C    0.940
   261   1 H    0.965 --   209 N    0.948
   262   1 H    0.993 --   245 C    0.936
 ---------------------------------------------------------------------------

Topologies differ in total number of bonds
Writing topology from bond orders to xtbtopo.mol

molecular dipole:
                 x           y           z       tot (Debye)
 q only:      -22.428      -8.573       3.145
   full:      -21.294      -8.987       3.181      59.302
molecular quadrupole (traceless):
                xx          xy          yy          xz          yz          zz
 q only:    -2082.097   -2920.748    -317.149   -2538.692    -898.166    2399.246
  q+dip:    -1943.352   -2865.063    -415.612   -2401.126    -925.344    2358.964
   full:    -1936.842   -2863.550    -415.897   -2400.266    -927.544    2352.739


           -------------------------------------------------
          | TOTAL ENERGY             -391.919175812762 Eh   |
          | GRADIENT NORM               0.317525631264 Eh/α |
          | HOMO-LUMO GAP               1.251310715088 eV   |
           -------------------------------------------------

------------------------------------------------------------------------
 * finished run on 2026/01/05 at 09:07:35.753     
------------------------------------------------------------------------
 total:
 * wall-time:     0 d,  0 h,  0 min,  2.659 sec
 *  cpu-time:     0 d,  0 h,  0 min, 38.790 sec
 * ratio c/w:    14.588 speedup
 SCF:
 * wall-time:     0 d,  0 h,  0 min,  2.577 sec
 *  cpu-time:     0 d,  0 h,  0 min, 37.556 sec
 * ratio c/w:    14.574 speedup

