      -----------------------------------------------------------      
     |                   =====================                   |     
     |                           x T B                           |     
     |                   =====================                   |     
     |                         S. Grimme                         |     
     |          Mulliken Center for Theoretical Chemistry        |     
     |                    University of Bonn                     |     
      -----------------------------------------------------------      

   * xtb version 6.7.1 (edcfbbe) compiled by 'conda@c0858423619e' on 2025-09-04

   xtb is free software: you can redistribute it and/or modify it under
   the terms of the GNU Lesser General Public License as published by
   the Free Software Foundation, either version 3 of the License, or
   (at your option) any later version.
   
   xtb is distributed in the hope that it will be useful,
   but WITHOUT ANY WARRANTY; without even the implied warranty of
   MERCHANTABILITY or FITNESS FOR A PARTICULAR PURPOSE.  See the
   GNU Lesser General Public License for more details.
   
   Cite this work as:
   * C. Bannwarth, E. Caldeweyher, S. Ehlert, A. Hansen, P. Pracht,
     J. Seibert, S. Spicher, S. Grimme, WIREs Comput. Mol. Sci., 2020, 11,
     e01493. DOI: 10.1002/wcms.1493
   
   for GFN2-xTB:
   * C. Bannwarth, S. Ehlert and S. Grimme., J. Chem. Theory Comput., 2019,
     15, 1652-1671. DOI: 10.1021/acs.jctc.8b01176
   for GFN1-xTB:
   * S. Grimme, C. Bannwarth, P. Shushkov, J. Chem. Theory Comput., 2017,
     13, 1989-2009. DOI: 10.1021/acs.jctc.7b00118
   for GFN0-xTB:
   * P. Pracht, E. Caldeweyher, S. Ehlert, S. Grimme, ChemRxiv, 2019, preprint.
     DOI: 10.26434/chemrxiv.8326202.v1
   for GFN-FF:
   * S. Spicher and S. Grimme, Angew. Chem. Int. Ed., 2020, 59, 15665-15673.
     DOI: 10.1002/anie.202004239
   
   for ALPB and GBSA implicit solvation:
   * S. Ehlert, M. Stahn, S. Spicher, S. Grimme, J. Chem. Theory Comput.,
     2021, 17, 4250-4261. DOI: 10.1021/acs.jctc.1c00471
   
   for ddCOSMO and CPCM-X implicit solvation:
   * M. Stahn, S. Ehlert, S. Grimme, J. Phys. Chem. A,
     2023, XX, XXXX-XXXX. DOI: 10.1021/acs.jpca.3c04382
   
   for DFT-D4:
   * E. Caldeweyher, C. Bannwarth and S. Grimme, J. Chem. Phys., 2017,
     147, 034112. DOI: 10.1063/1.4993215
   * E. Caldeweyher, S. Ehlert, A. Hansen, H. Neugebauer, S. Spicher,
     C. Bannwarth and S. Grimme, J. Chem. Phys., 2019, 150, 154122.
     DOI: 10.1063/1.5090222
   * E. Caldeweyher, J.-M. Mewes, S. Ehlert and S. Grimme, Phys. Chem. Chem. Phys.
     2020, 22, 8499-8512. DOI: 10.1039/D0CP00502A
   
   for sTDA-xTB:
   * S. Grimme and C. Bannwarth, J. Chem. Phys., 2016, 145, 054103.
     DOI: 10.1063/1.4959605
   
   in the mass-spec context:
   * V. Asgeirsson, C. Bauer and S. Grimme, Chem. Sci., 2017, 8, 4879.
     DOI: 10.1039/c7sc00601b
   * J. Koopman and S. Grimme, ACS Omega 2019, 4, 12, 15120-15133.
     DOI: 10.1021/acsomega.9b02011
   
   for metadynamics refer to:
   * S. Grimme, J. Chem. Theory Comput., 2019, 155, 2847-2862
     DOI: 10.1021/acs.jctc.9b00143
   
   for SPH calculations refer to:
   * S. Spicher and S. Grimme, J. Chem. Theory Comput., 2021, 17, 1701-1714
     DOI: 10.1021/acs.jctc.0c01306
   
   for ONIOM refer to:
   * C. Plett, A. Katbashev, S. Ehlert, S. Grimme, M. Bursch,
     Phys. Chem. Chem. Phys., 2023, 25, 17860-17868. DOI: 10.1039/D3CP02178E
   
   for DIPRO refer to:
   * J. Kohn, N. Gildemeister, S. Grimme, D. Fazzi, A. Hansen,
     J. Chem. Phys., 2023, just accepted.
   
   for PTB refer to:
   * S. Grimme, M. Mueller, A. Hansen, J. Chem. Phys., 2023, 158, 124111.
     DOI: 10.1063/5.0137838
   
   with help from (in alphabetical order)
   P. Atkinson, C. Bannwarth, F. Bohle, G. Brandenburg, E. Caldeweyher
   M. Checinski, S. Dohm, S. Ehlert, S. Ehrlich, I. Gerasimov, C. Hölzer
   A. Katbashev, J. Kohn, J. Koopman, C. Lavigne, S. Lehtola, F. März, M. Müller,
   F. Musil, H. Neugebauer, J. Pisarek, C. Plett, P. Pracht, F. Pultar,
   J. Seibert, P. Shushkov, S. Spicher, M. Stahn, M. Steiner, T. Strunk,
   J. Stückrath, T. Rose, and J. Unsleber
   
 * started run on 2026/01/05 at 09:06:36.547     
   ID    Z sym.   atoms
    1    6 C      1, 3-11, 14-16, 18, 20, 21, 24-29, 32
    2    7 N      2, 22
    3    8 O      12, 13, 17, 30, 31
    4   16 S      19, 23
    5    1 H      33-59

           -------------------------------------------------
          |                Calculation Setup                |
           -------------------------------------------------

          program call               : xtb /home/antonio_mesquita/Documentos/gmx_ISA_project/testes_arquivos_primeiros/gmx_ISA_testes/testes_qm_xtb/QM_analysis/QM_FRAMES_CAPPED/frame_1800ps/ligand_isolated_1800ps.xyz --gfn 2 --alpb water --chrg 1 --etemp 1500 --cycles 1000
          coordinate file            : /home/antonio_mesquita/Documentos/gmx_ISA_project/testes_arquivos_primeiros/gmx_ISA_testes/testes_qm_xtb/QM_analysis/QM_FRAMES_CAPPED/frame_1800ps/ligand_isolated_1800ps.xyz
          omp threads                :                    16


           -------------------------------------------------
          |                 G F N 2 - x T B                 |
           -------------------------------------------------

        Reference                      10.1021/acs.jctc.8b01176
      * Hamiltonian:
        H0-scaling (s, p, d)           1.850000    2.230000    2.230000
        zeta-weighting                 0.500000
      * Dispersion:
        s8                             2.700000
        a1                             0.520000
        a2                             5.000000
        s9                             5.000000
      * Repulsion:
        kExp                           1.500000    1.000000
        rExp                           1.000000
      * Coulomb:
        alpha                          2.000000
        third order                    shell-resolved
        anisotropic                    true
        a3                             3.000000
        a5                             4.000000
        cn-shift                       1.200000
        cn-exp                         4.000000
        max-rad                        5.000000

      * Solvation model:               ALPB
        Solvent                        water
        Parameter file                 internal GFN2-xTB/ALPB
        Dielectric constant                8.0200E+01
        Reference state                gsolv [1 M gas/solution]
        Free energy shift                  1.0808E-03 Eh       6.7819E-01 kcal/mol
        Temperature                        2.9815E+02 K
        Density                            1.0000E+00 kg/L
        Solvent mass                       1.8000E+01 g/mol
        Interaction kernel             P16
        Born radius scaling (c1)           1.4744E+00
        Born radii integrator          GBOBC
        Born offset                        0.0000E+00 a0       0.0000E+00 AA
        H-bond correction              true
        Ion screening                  false
        Surface tension                    1.0000E-05 Eh       1.5569E+01 dyn/cm
        Grid points                               230 per atom

          ...................................................
          :                      SETUP                      :
          :.................................................:
          :  # basis functions                 167          :
          :  # atomic orbitals                 165          :
          :  # shells                           93          :
          :  # electrons                       170          :
          :  max. iterations                   250          :
          :  Hamiltonian                  GFN2-xTB          :
          :  restarted?                      false          :
          :  GBSA solvation                   true          :
          :  PC potential                    false          :
          :  electronic temp.         1500.0000000     K    :
          :  accuracy                    1.0000000          :
          :  -> integral cutoff          0.2500000E+02      :
          :  -> integral neglect         0.1000000E-07      :
          :  -> SCF convergence          0.1000000E-05 Eh   :
          :  -> wf. convergence          0.1000000E-03 e    :
          :  Broyden damping             0.4000000          :
          :  net charge                          1          :
          :  unpaired electrons                  0          :
          ...................................................

 iter      E             dE          RMSdq      gap      omega  full diag
   1    -96.2337019 -0.962337E+02  0.513E+00    0.96       0.0  T
   2    -96.2396304 -0.592847E-02  0.398E+00    0.35       1.0  T
   3    -96.3298905 -0.902601E-01  0.287E+00    1.49       1.0  T
   4    -96.4130588 -0.831682E-01  0.154E+00    0.64       1.0  T
   5    -96.3893781  0.236807E-01  0.129E+00    1.00       1.0  T
   6    -96.4341137 -0.447357E-01  0.389E-01    0.44       1.0  T
   7    -96.4354272 -0.131345E-02  0.129E-01    0.34       1.0  T
   8    -96.4355977 -0.170497E-03  0.619E-02    0.36       1.0  T
   9    -96.4356283 -0.305848E-04  0.286E-02    0.36       1.0  T
  10    -96.4356386 -0.103151E-04  0.126E-02    0.36       1.0  T
  11    -96.4356402 -0.162346E-05  0.694E-03    0.36       1.9  T
  12    -96.4356409 -0.703741E-06  0.348E-03    0.36       3.7  T
  13    -96.4356411 -0.178799E-06  0.104E-03    0.36      12.5  T
  14    -96.4356411 -0.103195E-07  0.498E-04    0.36      26.1  T
  15    -96.4356411 -0.152963E-08  0.281E-04    0.36      46.3  T

   *** convergence criteria satisfied after 15 iterations ***

         #    Occupation            Energy/Eh            Energy/eV
      -------------------------------------------------------------
         1        2.0000           -0.8005394             -21.7838
       ...           ...                  ...                  ...
        79        1.9992           -0.4303548             -11.7106
        80        1.9985           -0.4273507             -11.6288
        81        1.9954           -0.4219239             -11.4811
        82        1.9914           -0.4189352             -11.3998
        83        1.9827           -0.4155968             -11.3090
        84        1.9743           -0.4136901             -11.2571
        85        1.6316           -0.4001371             -10.8883 (HOMO)
        86        0.4274           -0.3868795             -10.5275 (LUMO)
        87                         -0.2833300              -7.7098
        88                         -0.2674937              -7.2789
        89                         -0.2526501              -6.8750
        90                         -0.2452391              -6.6733
       ...                                ...                  ...
       165                          1.0552264              28.7142
      -------------------------------------------------------------
                  HL-Gap            0.0132576 Eh            0.3608 eV
             Fermi-level           -0.3930678 Eh          -10.6959 eV

 SCC (total)                   0 d,  0 h,  0 min,  0.192 sec
 SCC setup                      ...        0 min,  0.001 sec (  0.494%)
 Dispersion                     ...        0 min,  0.001 sec (  0.758%)
 classical contributions        ...        0 min,  0.000 sec (  0.071%)
 integral evaluation            ...        0 min,  0.007 sec (  3.548%)
 iterations                     ...        0 min,  0.149 sec ( 77.743%)
 molecular gradient             ...        0 min,  0.030 sec ( 15.847%)
 printout                       ...        0 min,  0.003 sec (  1.523%)

         :::::::::::::::::::::::::::::::::::::::::::::::::::::
         ::                     SUMMARY                     ::
         :::::::::::::::::::::::::::::::::::::::::::::::::::::
         :: total energy             -95.290733349780 Eh    ::
         :: total w/o Gsasa/hb       -95.286527889209 Eh    ::
         :: gradient norm              0.155520158358 Eh/a0 ::
         :: HOMO-LUMO gap              0.360756639151 eV    ::
         ::.................................................::
         :: SCC energy               -96.434735888927 Eh    ::
         :: -> isotropic ES            0.246402726915 Eh    ::
         :: -> anisotropic ES         -0.027520764276 Eh    ::
         :: -> anisotropic XC          0.040166623996 Eh    ::
         :: -> dispersion             -0.068536984346 Eh    ::
         :: -> Gsolv                  -0.097967565505 Eh    ::
         ::    -> Gelec               -0.093762104934 Eh    ::
         ::    -> Gsasa                0.002977858838 Eh    ::
         ::    -> Ghb                 -0.008264079108 Eh    ::
         ::    -> Gshift               0.001080759698 Eh    ::
         :: repulsion energy           1.144002539147 Eh    ::
         :: add. restraining           0.000000000000 Eh    ::
         :: total charge               0.999999999999 e     ::
         :::::::::::::::::::::::::::::::::::::::::::::::::::::

           -------------------------------------------------
          |                Property Printout                |
           -------------------------------------------------

    * Orbital Energies and Occupations

         #    Occupation            Energy/Eh            Energy/eV
      -------------------------------------------------------------
         1        2.0000           -0.8005394             -21.7838
       ...           ...                  ...                  ...
        73        2.0000           -0.4575266             -12.4499
        74        2.0000           -0.4544871             -12.3672
        75        1.9999           -0.4409648             -11.9993
        76        1.9999           -0.4402569             -11.9800
        77        1.9999           -0.4385946             -11.9348
        78        1.9997           -0.4351651             -11.8414
        79        1.9992           -0.4303548             -11.7106
        80        1.9985           -0.4273507             -11.6288
        81        1.9954           -0.4219239             -11.4811
        82        1.9914           -0.4189352             -11.3998
        83        1.9827           -0.4155968             -11.3090
        84        1.9743           -0.4136901             -11.2571
        85        1.6316           -0.4001371             -10.8883 (HOMO)
        86        0.4274           -0.3868795             -10.5275 (LUMO)
        87                         -0.2833300              -7.7098
        88                         -0.2674937              -7.2789
        89                         -0.2526501              -6.8750
        90                         -0.2452391              -6.6733
        91                         -0.2425679              -6.6006
        92                         -0.2400507              -6.5321
        93                         -0.2354171              -6.4060
        94                         -0.1793743              -4.8810
        95                         -0.1687283              -4.5913
        96                         -0.1582600              -4.3065
       ...                                ...                  ...
       165                          1.0552264              28.7142
      -------------------------------------------------------------
                  HL-Gap            0.0132576 Eh            0.3608 eV
             Fermi-level           -0.3930678 Eh          -10.6959 eV

     #   Z          covCN         q      C6AA      α(0)
     1   6 C        2.743     0.288    22.126     7.702
     2   7 N        2.690    -0.078    22.753     7.084
     3   6 C        2.867     0.088    26.044     8.365
     4   6 C        3.683     0.071    19.584     6.337
     5   6 C        3.806    -0.079    22.002     6.677
     6   6 C        2.964     0.035    27.211     8.556
     7   6 C        2.917    -0.038    28.946     8.822
     8   6 C        2.909    -0.033    28.814     8.802
     9   6 C        2.908    -0.031    28.780     8.797
    10   6 C        2.918    -0.025    28.617     8.772
    11   6 C        2.909    -0.035    28.880     8.812
    12   8 O        1.703    -0.236    17.906     5.713
    13   8 O        0.857    -0.426    22.214     6.319
    14   6 C        2.704     0.351    21.046     7.509
    15   6 C        3.745    -0.137    23.215     6.873
    16   6 C        3.847    -0.005    20.635     6.461
    17   8 O        0.857    -0.395    21.589     6.230
    18   6 C        3.788    -0.054    21.550     6.612
    19  16 S        1.968     0.031   139.776    19.899
    20   6 C        3.795    -0.072    21.878     6.660
    21   6 C        3.842     0.020    20.216     6.396
    22   7 N        2.733    -0.253    26.576     7.657
    23  16 S        3.796     1.145   102.592    17.047
    24   6 C        2.955    -0.085    30.134     9.004
    25   6 C        2.941    -0.033    28.823     8.805
    26   6 C        2.921    -0.038    28.949     8.823
    27   6 C        2.953     0.039    27.125     8.542
    28   6 C        2.918    -0.034    28.853     8.809
    29   6 C        2.936    -0.030    28.742     8.792
    30   8 O        0.859    -0.659    27.606     7.044
    31   8 O        0.860    -0.641    27.141     6.985
    32   6 C        3.751    -0.140    23.254     6.877
    33   1 H        0.861     0.280     0.776     1.380
    34   1 H        0.924     0.078     1.995     2.209
    35   1 H        0.923     0.073     2.057     2.243
    36   1 H        0.924     0.120     1.611     1.985
    37   1 H        0.923     0.123     1.591     1.973
    38   1 H        0.925     0.056     2.249     2.345
    39   1 H        0.925     0.052     2.301     2.372
    40   1 H        0.925     0.057     2.229     2.335
    41   1 H        0.924     0.059     2.211     2.326
    42   1 H        0.925     0.075     2.036     2.232
    43   1 H        0.924     0.078     2.000     2.212
    44   1 H        0.923     0.071     2.073     2.252
    45   1 H        0.923     0.076     2.021     2.223
    46   1 H        0.924     0.068     2.105     2.269
    47   1 H        0.923     0.086     1.916     2.165
    48   1 H        0.922     0.115     1.652     2.010
    49   1 H        0.924     0.115     1.656     2.013
    50   1 H        0.924     0.131     1.525     1.931
    51   1 H        0.925     0.128     1.552     1.948
    52   1 H        0.924     0.125     1.577     1.964
    53   1 H        0.925     0.081     1.964     2.192
    54   1 H        0.925     0.085     1.929     2.172
    55   1 H        0.925     0.078     1.996     2.209
    56   1 H        0.924     0.056     2.242     2.341
    57   1 H        0.924     0.064     2.156     2.296
    58   1 H        0.924     0.088     1.901     2.156
    59   1 H        0.924     0.071     2.074     2.252

 Mol. C6AA /au·bohr⁶  :      43349.268921
 Mol. C8AA /au·bohr⁸  :    1117059.906372
 Mol. α(0) /au        :        323.789034


Wiberg/Mayer (AO) data.
largest (>0.10) Wiberg bond orders for each atom

 ---------------------------------------------------------------------------
     #   Z sym  total        # sym  WBO       # sym  WBO       # sym  WBO
 ---------------------------------------------------------------------------
     1   6 C    3.888 --    17 O    1.743     2 N    1.133    21 C    0.936
     2   7 N    3.543 --     3 C    1.307     1 C    1.133    33 H    0.852
                            17 O    0.110
     3   6 C    3.636 --     2 N    1.307     5 C    1.074    14 C    1.019
     4   6 C    3.897 --    15 C    1.014    34 H    0.956    35 H    0.954
                            12 O    0.928
     5   6 C    3.951 --     3 C    1.074    36 H    0.937    37 H    0.926
                             6 C    0.924
     6   6 C    3.931 --    11 C    1.410     7 C    1.406     5 C    0.924
                             9 C    0.103
     7   6 C    3.968 --     8 C    1.431     6 C    1.406    38 H    0.967
                            10 C    0.105
     8   6 C    3.972 --     7 C    1.431     9 C    1.428    39 H    0.968
                            11 C    0.109
     9   6 C    3.968 --    10 C    1.436     8 C    1.428    40 H    0.966
                             6 C    0.103
    10   6 C    3.968 --     9 C    1.436    11 C    1.428    41 H    0.965
                             7 C    0.105
    11   6 C    3.970 --    10 C    1.428     6 C    1.410    42 H    0.963
                             8 C    0.109
    12   8 O    2.323 --    14 C    1.153     4 C    0.928    13 O    0.188
    13   8 O    1.974 --    14 C    1.660    12 O    0.188
    14   6 C    3.907 --    13 O    1.660    12 O    1.153     3 C    1.019
    15   6 C    3.976 --     4 C    1.014    45 H    0.983    44 H    0.978
                            43 H    0.978
    16   6 C    3.949 --    18 C    0.999    22 N    0.983    46 H    0.964
                            47 H    0.955
    17   8 O    2.008 --     1 C    1.743     2 N    0.110
    18   6 C    3.947 --    16 C    0.999    19 S    0.990    49 H    0.961
                            48 H    0.954
    19  16 S    2.125 --    20 C    1.001    18 C    0.990
    20   6 C    3.946 --    19 S    1.001    21 C    0.984    51 H    0.956
                            50 H    0.948
    21   6 C    3.948 --    20 C    0.984    22 N    0.982     1 C    0.936
                            52 H    0.917
    22   7 N    3.185 --    16 C    0.983    21 C    0.982    23 S    0.890
    23  16 S    4.827 --    31 O    1.568    30 O    1.540    22 N    0.890
                            24 C    0.731
    24   6 C    3.936 --    29 C    1.416    25 C    1.396    23 S    0.731
    25   6 C    3.981 --    26 C    1.458    24 C    1.396    53 H    0.963
                            28 C    0.105
    26   6 C    3.980 --    25 C    1.458    27 C    1.387    54 H    0.963
                            29 C    0.105
    27   6 C    3.973 --    28 C    1.409    26 C    1.387    32 C    1.030
    28   6 C    3.979 --    29 C    1.434    27 C    1.409    55 H    0.962
                            25 C    0.105
    29   6 C    3.981 --    28 C    1.434    24 C    1.416    56 H    0.964
                            26 C    0.105
    30   8 O    1.833 --    23 S    1.540    31 O    0.101
    31   8 O    1.855 --    23 S    1.568    30 O    0.101
    32   6 C    3.980 --    27 C    1.030    59 H    0.976    57 H    0.973
                            58 H    0.958
    33   1 H    0.921 --     2 N    0.852
    34   1 H    0.989 --     4 C    0.956
    35   1 H    0.989 --     4 C    0.954
    36   1 H    0.978 --     5 C    0.937
    37   1 H    0.975 --     5 C    0.926
    38   1 H    0.996 --     7 C    0.967
    39   1 H    0.995 --     8 C    0.968
    40   1 H    0.992 --     9 C    0.966
    41   1 H    0.994 --    10 C    0.965
    42   1 H    0.994 --    11 C    0.963
    43   1 H    0.993 --    15 C    0.978
    44   1 H    0.994 --    15 C    0.978
    45   1 H    0.993 --    15 C    0.983
    46   1 H    0.989 --    16 C    0.964
    47   1 H    0.992 --    16 C    0.955
    48   1 H    0.971 --    18 C    0.954
    49   1 H    0.985 --    18 C    0.961
    50   1 H    0.968 --    20 C    0.948
    51   1 H    0.982 --    20 C    0.956
    52   1 H    0.982 --    21 C    0.917
    53   1 H    0.993 --    25 C    0.963
    54   1 H    0.992 --    26 C    0.963
    55   1 H    0.993 --    28 C    0.962
    56   1 H    0.996 --    29 C    0.964
    57   1 H    0.995 --    32 C    0.973
    58   1 H    0.991 --    32 C    0.958
    59   1 H    0.994 --    32 C    0.976
 ---------------------------------------------------------------------------

Topologies differ in total number of bonds
Writing topology from bond orders to xtbtopo.mol

molecular dipole:
                 x           y           z       tot (Debye)
 q only:       53.845      43.658      94.463
   full:       54.222      43.269      94.389     297.737
molecular quadrupole (traceless):
                xx          xy          yy          xz          yz          zz
 q only:    -2516.437    3617.923   -3962.323    7639.535    6161.190    6478.760
  q+dip:    -2454.894    3602.974   -4010.616    7687.767    6100.889    6465.510
   full:    -2455.117    3602.003   -4010.832    7686.981    6101.101    6465.948


           -------------------------------------------------
          | TOTAL ENERGY              -95.290733349780 Eh   |
          | GRADIENT NORM               0.155520158358 Eh/α |
          | HOMO-LUMO GAP               0.360756639151 eV   |
           -------------------------------------------------
Note: The following floating-point exceptions are signalling: IEEE_UNDERFLOW_FLAG IEEE_DENORMAL
normal termination of xtb

------------------------------------------------------------------------
 * finished run on 2026/01/05 at 09:06:36.761     
------------------------------------------------------------------------
 total:
 * wall-time:     0 d,  0 h,  0 min,  0.214 sec
 *  cpu-time:     0 d,  0 h,  0 min,  3.179 sec
 * ratio c/w:    14.885 speedup
 SCF:
 * wall-time:     0 d,  0 h,  0 min,  0.192 sec
 *  cpu-time:     0 d,  0 h,  0 min,  2.879 sec
 * ratio c/w:    14.967 speedup

