      -----------------------------------------------------------      
     |                   =====================                   |     
     |                           x T B                           |     
     |                   =====================                   |     
     |                         S. Grimme                         |     
     |          Mulliken Center for Theoretical Chemistry        |     
     |                    University of Bonn                     |     
      -----------------------------------------------------------      

   * xtb version 6.7.1 (edcfbbe) compiled by 'conda@c0858423619e' on 2025-09-04

   xtb is free software: you can redistribute it and/or modify it under
   the terms of the GNU Lesser General Public License as published by
   the Free Software Foundation, either version 3 of the License, or
   (at your option) any later version.
   
   xtb is distributed in the hope that it will be useful,
   but WITHOUT ANY WARRANTY; without even the implied warranty of
   MERCHANTABILITY or FITNESS FOR A PARTICULAR PURPOSE.  See the
   GNU Lesser General Public License for more details.
   
   Cite this work as:
   * C. Bannwarth, E. Caldeweyher, S. Ehlert, A. Hansen, P. Pracht,
     J. Seibert, S. Spicher, S. Grimme, WIREs Comput. Mol. Sci., 2020, 11,
     e01493. DOI: 10.1002/wcms.1493
   
   for GFN2-xTB:
   * C. Bannwarth, S. Ehlert and S. Grimme., J. Chem. Theory Comput., 2019,
     15, 1652-1671. DOI: 10.1021/acs.jctc.8b01176
   for GFN1-xTB:
   * S. Grimme, C. Bannwarth, P. Shushkov, J. Chem. Theory Comput., 2017,
     13, 1989-2009. DOI: 10.1021/acs.jctc.7b00118
   for GFN0-xTB:
   * P. Pracht, E. Caldeweyher, S. Ehlert, S. Grimme, ChemRxiv, 2019, preprint.
     DOI: 10.26434/chemrxiv.8326202.v1
   for GFN-FF:
   * S. Spicher and S. Grimme, Angew. Chem. Int. Ed., 2020, 59, 15665-15673.
     DOI: 10.1002/anie.202004239
   
   for ALPB and GBSA implicit solvation:
   * S. Ehlert, M. Stahn, S. Spicher, S. Grimme, J. Chem. Theory Comput.,
     2021, 17, 4250-4261. DOI: 10.1021/acs.jctc.1c00471
   
   for ddCOSMO and CPCM-X implicit solvation:
   * M. Stahn, S. Ehlert, S. Grimme, J. Phys. Chem. A,
     2023, XX, XXXX-XXXX. DOI: 10.1021/acs.jpca.3c04382
   
   for DFT-D4:
   * E. Caldeweyher, C. Bannwarth and S. Grimme, J. Chem. Phys., 2017,
     147, 034112. DOI: 10.1063/1.4993215
   * E. Caldeweyher, S. Ehlert, A. Hansen, H. Neugebauer, S. Spicher,
     C. Bannwarth and S. Grimme, J. Chem. Phys., 2019, 150, 154122.
     DOI: 10.1063/1.5090222
   * E. Caldeweyher, J.-M. Mewes, S. Ehlert and S. Grimme, Phys. Chem. Chem. Phys.
     2020, 22, 8499-8512. DOI: 10.1039/D0CP00502A
   
   for sTDA-xTB:
   * S. Grimme and C. Bannwarth, J. Chem. Phys., 2016, 145, 054103.
     DOI: 10.1063/1.4959605
   
   in the mass-spec context:
   * V. Asgeirsson, C. Bauer and S. Grimme, Chem. Sci., 2017, 8, 4879.
     DOI: 10.1039/c7sc00601b
   * J. Koopman and S. Grimme, ACS Omega 2019, 4, 12, 15120-15133.
     DOI: 10.1021/acsomega.9b02011
   
   for metadynamics refer to:
   * S. Grimme, J. Chem. Theory Comput., 2019, 155, 2847-2862
     DOI: 10.1021/acs.jctc.9b00143
   
   for SPH calculations refer to:
   * S. Spicher and S. Grimme, J. Chem. Theory Comput., 2021, 17, 1701-1714
     DOI: 10.1021/acs.jctc.0c01306
   
   for ONIOM refer to:
   * C. Plett, A. Katbashev, S. Ehlert, S. Grimme, M. Bursch,
     Phys. Chem. Chem. Phys., 2023, 25, 17860-17868. DOI: 10.1039/D3CP02178E
   
   for DIPRO refer to:
   * J. Kohn, N. Gildemeister, S. Grimme, D. Fazzi, A. Hansen,
     J. Chem. Phys., 2023, just accepted.
   
   for PTB refer to:
   * S. Grimme, M. Mueller, A. Hansen, J. Chem. Phys., 2023, 158, 124111.
     DOI: 10.1063/5.0137838
   
   with help from (in alphabetical order)
   P. Atkinson, C. Bannwarth, F. Bohle, G. Brandenburg, E. Caldeweyher
   M. Checinski, S. Dohm, S. Ehlert, S. Ehrlich, I. Gerasimov, C. Hölzer
   A. Katbashev, J. Kohn, J. Koopman, C. Lavigne, S. Lehtola, F. März, M. Müller,
   F. Musil, H. Neugebauer, J. Pisarek, C. Plett, P. Pracht, F. Pultar,
   J. Seibert, P. Shushkov, S. Spicher, M. Stahn, M. Steiner, T. Strunk,
   J. Stückrath, T. Rose, and J. Unsleber
   
 * started run on 2026/01/05 at 09:07:09.333     
   ID    Z sym.   atoms
    1    7 N      1, 21, 33, 45, 50, 65, 81, 100, 113, 116, 119, 124, 145,
                  153, 156, 162, 181
    2    1 H      2, 4, 6, 7, 10, 12, 14, 16, 18, 22, 24, 26, 27, 34, 36, 38,
                  39, 41, 42, 46, 47, 51, 53, 55, 56, 58, 59, 66, 68, 70,
                  72-74, 76-78, 82, 84, 86, 88-90, 92, 93, 95-97, 101, 103,
                  105, 106, 108, 109, 111, 112, 114, 117, 118, 120, 121, 125,
                  127, 129, 130, 133, 135, 138, 140, 142, 146, 148, 150, 151,
                  155, 157, 159, 163, 165, 167, 169-171, 173, 174, 176-178,
                  182, 184, 186, 188-190, 192, 193, 195-197, 200-209
    3    6 C      3, 5, 8, 9, 11, 13, 15, 17, 19, 23, 25, 28, 31, 35, 37, 40,
                  43, 48, 52, 54, 57, 60, 63, 67, 69, 71, 75, 79, 83, 85, 87,
                  91, 94, 98, 102, 104, 107, 110, 115, 122, 126, 128, 131,
                  132, 134, 136, 139, 141, 143, 147, 149, 152, 154, 158, 160,
                  164, 166, 168, 172, 175, 179, 183, 185, 187, 191, 194, 198
    4    8 O      20, 29, 30, 32, 44, 49, 61, 62, 64, 80, 99, 123, 137, 144,
                  161, 180, 199

           -------------------------------------------------
          |                Calculation Setup                |
           -------------------------------------------------

          program call               : xtb /home/antonio_mesquita/Documentos/gmx_ISA_project/testes_arquivos_primeiros/gmx_ISA_testes/testes_qm_xtb/QM_analysis/QM_FRAMES_CAPPED/frame_3000ps/residues_pocket_capped_3000ps.xyz --gfn 2 --alpb water --chrg -1 --etemp 1500 --cycles 1000
          coordinate file            : /home/antonio_mesquita/Documentos/gmx_ISA_project/testes_arquivos_primeiros/gmx_ISA_testes/testes_qm_xtb/QM_analysis/QM_FRAMES_CAPPED/frame_3000ps/residues_pocket_capped_3000ps.xyz
          omp threads                :                    16


molecular fragmentation (1/2 indicates fragments):
111111111111111111111111111111112222222222222222222222222222222222222222
222222222222222222222222222222222222222222222222222222222222222222222222
22222222222222222222222222222222222222222222222222222221122222222
# atoms in fragment 1/2:    34   175
 fragment masses (1/2) :      263.27     1160.41
CMA distance (Bohr)    :  19.379
constraining FC (au)   :  0.0500

           -------------------------------------------------
          |                 G F N 2 - x T B                 |
           -------------------------------------------------

        Reference                      10.1021/acs.jctc.8b01176
      * Hamiltonian:
        H0-scaling (s, p, d)           1.850000    2.230000    2.230000
        zeta-weighting                 0.500000
      * Dispersion:
        s8                             2.700000
        a1                             0.520000
        a2                             5.000000
        s9                             5.000000
      * Repulsion:
        kExp                           1.500000    1.000000
        rExp                           1.000000
      * Coulomb:
        alpha                          2.000000
        third order                    shell-resolved
        anisotropic                    true
        a3                             3.000000
        a5                             4.000000
        cn-shift                       1.200000
        cn-exp                         4.000000
        max-rad                        5.000000

      * Solvation model:               ALPB
        Solvent                        water
        Parameter file                 internal GFN2-xTB/ALPB
        Dielectric constant                8.0200E+01
        Reference state                gsolv [1 M gas/solution]
        Free energy shift                  1.0808E-03 Eh       6.7819E-01 kcal/mol
        Temperature                        2.9815E+02 K
        Density                            1.0000E+00 kg/L
        Solvent mass                       1.8000E+01 g/mol
        Interaction kernel             P16
        Born radius scaling (c1)           1.4744E+00
        Born radii integrator          GBOBC
        Born offset                        0.0000E+00 a0       0.0000E+00 AA
        H-bond correction              true
        Ion screening                  false
        Surface tension                    1.0000E-05 Eh       1.5569E+01 dyn/cm
        Grid points                               230 per atom

          ...................................................
          :                      SETUP                      :
          :.................................................:
          :  # basis functions                 512          :
          :  # atomic orbitals                 512          :
          :  # shells                          310          :
          :  # electrons                       564          :
          :  max. iterations                   250          :
          :  Hamiltonian                  GFN2-xTB          :
          :  restarted?                      false          :
          :  GBSA solvation                   true          :
          :  PC potential                    false          :
          :  electronic temp.         1500.0000000     K    :
          :  accuracy                    1.0000000          :
          :  -> integral cutoff          0.2500000E+02      :
          :  -> integral neglect         0.1000000E-07      :
          :  -> SCF convergence          0.1000000E-05 Eh   :
          :  -> wf. convergence          0.1000000E-03 e    :
          :  Broyden damping             0.4000000          :
          :  net charge                         -1          :
          :  unpaired electrons                  0          :
          ...................................................

 iter      E             dE          RMSdq      gap      omega  full diag
   1   -320.6689242 -0.320669E+03  0.446E+00    1.67       0.0  T
   2   -321.3955039 -0.726580E+00  0.229E+00    1.06       1.0  T
   3   -321.4198301 -0.243262E-01  0.121E+00    1.61       1.0  T
   4   -321.4438751 -0.240450E-01  0.303E-01    1.03       1.0  T
   5   -321.4532509 -0.937582E-02  0.123E-01    1.27       1.0  T
   6   -321.4536040 -0.353087E-03  0.632E-02    1.20       1.0  T
   7   -321.4537505 -0.146499E-03  0.268E-02    1.21       1.0  T
   8   -321.4537811 -0.305988E-04  0.116E-02    1.22       1.0  T
   9   -321.4537870 -0.583416E-05  0.528E-03    1.22       1.3  T
  10   -321.4537880 -0.104890E-05  0.262E-03    1.22       2.6  T
  11   -321.4537883 -0.273583E-06  0.118E-03    1.22       5.8  T
  12   -321.4537884 -0.803957E-07  0.521E-04    1.22      13.3  T
  13   -321.4537884 -0.118423E-07  0.273E-04    1.22      25.4  T

   *** convergence criteria satisfied after 13 iterations ***

         #    Occupation            Energy/Eh            Energy/eV
      -------------------------------------------------------------
         1        2.0000           -0.7355986             -20.0167
       ...           ...                  ...                  ...
       276        1.9999           -0.3624026              -9.8615
       277        1.9999           -0.3617529              -9.8438
       278        1.9989           -0.3515477              -9.5661
       279        1.9980           -0.3488030              -9.4914
       280        1.9898           -0.3410227              -9.2797
       281        1.9892           -0.3407395              -9.2720
       282        1.9784           -0.3374038              -9.1812 (HOMO)
       283        0.0148           -0.2926934              -7.9646 (LUMO)
       284        0.0119           -0.2916510              -7.9362
       285        0.0113           -0.2914134              -7.9298
       286        0.0073           -0.2893124              -7.8726
       287        0.0006           -0.2776415              -7.5550
       ...           ...                  ...                  ...
       512                          0.6392827              17.3958
      -------------------------------------------------------------
                  HL-Gap            0.0447105 Eh            1.2166 eV
             Fermi-level           -0.3159545 Eh           -8.5976 eV

 SCC (total)                   0 d,  0 h,  0 min,  1.450 sec
 SCC setup                      ...        0 min,  0.007 sec (  0.489%)
 Dispersion                     ...        0 min,  0.014 sec (  0.994%)
 classical contributions        ...        0 min,  0.001 sec (  0.066%)
 integral evaluation            ...        0 min,  0.041 sec (  2.828%)
 iterations                     ...        0 min,  1.198 sec ( 82.637%)
 molecular gradient             ...        0 min,  0.181 sec ( 12.482%)
 printout                       ...        0 min,  0.007 sec (  0.501%)

         :::::::::::::::::::::::::::::::::::::::::::::::::::::
         ::                     SUMMARY                     ::
         :::::::::::::::::::::::::::::::::::::::::::::::::::::
         :: total energy            -317.573318165944 Eh    ::
         :: total w/o Gsasa/hb      -317.538701369096 Eh    ::
         :: gradient norm              0.285852691171 Eh/a0 ::
         :: HOMO-LUMO gap              1.216634043538 eV    ::
         ::.................................................::
         :: SCC energy              -321.445113435731 Eh    ::
         :: -> isotropic ES            1.216814818527 Eh    ::
         :: -> anisotropic ES          0.007596851128 Eh    ::
         :: -> anisotropic XC          0.127496214616 Eh    ::
         :: -> dispersion             -0.218172060468 Eh    ::
         :: -> Gsolv                  -0.449406054495 Eh    ::
         ::    -> Gelec               -0.414789257647 Eh    ::
         ::    -> Gsasa                0.012371633278 Eh    ::
         ::    -> Ghb                 -0.048069189824 Eh    ::
         ::    -> Gshift               0.001080759698 Eh    ::
         :: repulsion energy           3.871795269787 Eh    ::
         :: add. restraining           0.000000000000 Eh    ::
         :: total charge              -1.000000000873 e     ::
         :::::::::::::::::::::::::::::::::::::::::::::::::::::

           -------------------------------------------------
          |                Property Printout                |
           -------------------------------------------------

    * Orbital Energies and Occupations

         #    Occupation            Energy/Eh            Energy/eV
      -------------------------------------------------------------
         1        2.0000           -0.7355986             -20.0167
       ...           ...                  ...                  ...
       270        2.0000           -0.3891947             -10.5905
       271        2.0000           -0.3819470             -10.3933
       272        2.0000           -0.3788674             -10.3095
       273        2.0000           -0.3725063             -10.1364
       274        2.0000           -0.3682869             -10.0216
       275        1.9999           -0.3655526              -9.9472
       276        1.9999           -0.3624026              -9.8615
       277        1.9999           -0.3617529              -9.8438
       278        1.9989           -0.3515477              -9.5661
       279        1.9980           -0.3488030              -9.4914
       280        1.9898           -0.3410227              -9.2797
       281        1.9892           -0.3407395              -9.2720
       282        1.9784           -0.3374038              -9.1812 (HOMO)
       283        0.0148           -0.2926934              -7.9646 (LUMO)
       284        0.0119           -0.2916510              -7.9362
       285        0.0113           -0.2914134              -7.9298
       286        0.0073           -0.2893124              -7.8726
       287        0.0006           -0.2776415              -7.5550
       288                         -0.2300391              -6.2597
       289                         -0.2264893              -6.1631
       290                         -0.2238561              -6.0914
       291                         -0.2237123              -6.0875
       292                         -0.2230304              -6.0690
       293                         -0.2228246              -6.0634
       ...                                ...                  ...
       512                          0.6392827              17.3958
      -------------------------------------------------------------
                  HL-Gap            0.0447105 Eh            1.2166 eV
             Fermi-level           -0.3159545 Eh           -8.5976 eV

     #   Z          covCN         q      C6AA      α(0)
     1   7 N        2.631    -0.376    29.726     8.097
     2   1 H        0.860     0.159     1.338     1.812
     3   6 C        3.786     0.033    20.026     6.374
     4   1 H        0.925     0.063     2.161     2.299
     5   6 C        3.819    -0.080    22.011     6.677
     6   1 H        0.923     0.077     2.010     2.217
     7   1 H        0.925     0.062     2.175     2.306
     8   6 C        2.968     0.005    27.900     8.664
     9   6 C        2.926    -0.045    29.122     8.850
    10   1 H        0.926     0.055     2.253     2.347
    11   6 C        2.904    -0.041    29.010     8.832
    12   1 H        0.926     0.061     2.186     2.312
    13   6 C        2.930    -0.040    28.989     8.830
    14   1 H        0.925     0.030     2.584     2.514
    15   6 C        2.909    -0.034    28.852     8.808
    16   1 H        0.925     0.019     2.742     2.589
    17   6 C        2.914    -0.037    28.921     8.819
    18   1 H        0.926     0.009     2.908     2.667
    19   6 C        2.757     0.270    22.447     7.759
    20   8 O        0.861    -0.540    24.697     6.663
    21   7 N        2.702    -0.165    24.573     7.362
    22   1 H        0.860     0.218     1.020     1.582
    23   6 C        3.794     0.041    19.898     6.352
    24   1 H        0.925     0.079     1.990     2.206
    25   6 C        3.821    -0.082    22.050     6.682
    26   1 H        0.925     0.043     2.408     2.427
    27   1 H        0.925     0.065     2.139     2.287
    28   6 C        2.686     0.359    20.901     7.482
    29   8 O        0.857    -0.655    27.500     7.031
    30   8 O        0.857    -0.655    27.521     7.033
    31   6 C        2.758     0.207    23.608     7.957
    32   8 O        0.857    -0.371    21.102     6.159
    33   7 N        2.633    -0.379    29.795     8.107
    34   1 H        0.860     0.181     1.208     1.722
    35   6 C        3.788     0.031    20.065     6.380
    36   1 H        0.924     0.083     1.952     2.185
    37   6 C        3.809    -0.055    21.546     6.608
    38   1 H        0.924     0.049     2.334     2.389
    39   1 H        0.924     0.048     2.346     2.395
    40   6 C        3.804    -0.097    22.342     6.729
    41   1 H        0.924     0.083     1.945     2.181
    42   1 H        0.924     0.071     2.079     2.255
    43   6 C        2.745     0.279    22.280     7.729
    44   8 O        0.872    -0.553    24.973     6.700
    45   7 N        2.648    -0.301    27.755     7.824
    46   1 H        0.860     0.238     0.931     1.512
    47   1 H        0.860     0.273     0.798     1.399
    48   6 C        2.749     0.265    22.534     7.773
    49   8 O        0.863    -0.535    24.579     6.647
    50   7 N        2.693    -0.187    25.060     7.435
    51   1 H        0.860     0.210     1.058     1.611
    52   6 C        3.795     0.027    20.130     6.389
    53   1 H        0.925     0.073     2.054     2.241
    54   6 C        3.812    -0.049    21.435     6.590
    55   1 H        0.925     0.050     2.323     2.383
    56   1 H        0.925     0.052     2.299     2.371
    57   6 C        3.802    -0.095    22.320     6.726
    58   1 H        0.924     0.043     2.403     2.424
    59   1 H        0.925     0.032     2.553     2.498
    60   6 C        2.687     0.367    20.780     7.460
    61   8 O        0.857    -0.664    27.757     7.064
    62   8 O        0.857    -0.663    27.728     7.060
    63   6 C        2.755     0.275    22.357     7.743
    64   8 O        0.859    -0.524    24.320     6.612
    65   7 N        2.690    -0.148    24.203     7.307
    66   1 H        0.860     0.212     1.047     1.603
    67   6 C        3.797     0.022    20.208     6.401
    68   1 H        0.924     0.077     2.012     2.218
    69   6 C        3.857    -0.017    20.839     6.492
    70   1 H        0.925     0.052     2.297     2.370
    71   6 C        3.759    -0.115    22.755     6.801
    72   1 H        0.924     0.040     2.449     2.447
    73   1 H        0.925     0.047     2.355     2.400
    74   1 H        0.925     0.044     2.395     2.420
    75   6 C        3.754    -0.113    22.713     6.796
    76   1 H        0.925     0.048     2.350     2.397
    77   1 H        0.923     0.052     2.297     2.370
    78   1 H        0.924     0.032     2.559     2.502
    79   6 C        2.759     0.267    22.492     7.766
    80   8 O        0.859    -0.510    24.008     6.569
    81   7 N        2.692    -0.154    24.333     7.326
    82   1 H        0.860     0.207     1.071     1.621
    83   6 C        3.812     0.020    20.236     6.403
    84   1 H        0.925     0.079     1.991     2.207
    85   6 C        3.857    -0.020    20.892     6.501
    86   1 H        0.924     0.064     2.155     2.296
    87   6 C        3.760    -0.118    22.801     6.807
    88   1 H        0.924     0.059     2.207     2.323
    89   1 H        0.925     0.056     2.243     2.342
    90   1 H        0.924     0.035     2.514     2.480
    91   6 C        3.804    -0.061    21.678     6.628
    92   1 H        0.924     0.044     2.395     2.420
    93   1 H        0.925     0.034     2.533     2.489
    94   6 C        3.752    -0.120    22.864     6.819
    95   1 H        0.925     0.037     2.488     2.467
    96   1 H        0.925     0.045     2.385     2.415
    97   1 H        0.924     0.055     2.257     2.350
    98   6 C        2.753     0.274    22.361     7.743
    99   8 O        0.859    -0.521    24.250     6.602
   100   7 N        2.698    -0.172    24.720     7.384
   101   1 H        0.860     0.237     0.934     1.514
   102   6 C        3.790     0.032    20.043     6.376
   103   1 H        0.925     0.090     1.882     2.146
   104   6 C        3.821    -0.085    22.099     6.690
   105   1 H        0.925     0.075     2.030     2.228
   106   1 H        0.924     0.079     1.993     2.208
   107   6 C        3.801    -0.081    22.038     6.684
   108   1 H        0.925     0.076     2.020     2.222
   109   1 H        0.924     0.068     2.112     2.273
   110   6 C        3.742    -0.023    21.065     6.548
   111   1 H        0.924     0.086     1.920     2.167
   112   1 H        0.925     0.086     1.914     2.163
   113   7 N        2.692    -0.137    23.974     7.272
   114   1 H        0.860     0.237     0.934     1.514
   115   6 C        2.736     0.236    23.057     7.862
   116   7 N        2.657    -0.266    26.893     7.702
   117   1 H        0.860     0.252     0.876     1.466
   118   1 H        0.860     0.274     0.797     1.398
   119   7 N        2.663    -0.281    27.247     7.752
   120   1 H        0.860     0.250     0.883     1.472
   121   1 H        0.860     0.262     0.837     1.433
   122   6 C        2.759     0.214    23.475     7.934
   123   8 O        0.857    -0.375    21.180     6.170
   124   7 N        2.638    -0.372    29.617     8.083
   125   1 H        0.860     0.171     1.268     1.764
   126   6 C        3.783     0.044    19.856     6.347
   127   1 H        0.923     0.079     1.989     2.205
   128   6 C        3.818    -0.067    21.771     6.641
   129   1 H        0.925     0.061     2.186     2.312
   130   1 H        0.925     0.056     2.249     2.345
   131   6 C        2.956     0.005    27.908     8.665
   132   6 C        2.921    -0.043    29.065     8.841
   133   1 H        0.926     0.049     2.328     2.386
   134   6 C        2.910    -0.064    29.588     8.919
   135   1 H        0.926     0.043     2.404     2.424
   136   6 C        2.831     0.145    24.849     8.169
   137   8 O        1.659    -0.447    21.776     6.300
   138   1 H        0.805     0.338     0.616     1.233
   139   6 C        2.918    -0.075    29.869     8.962
   140   1 H        0.926     0.036     2.505     2.475
   141   6 C        2.914    -0.045    29.110     8.847
   142   1 H        0.925     0.047     2.363     2.404
   143   6 C        2.762     0.197    23.795     7.988
   144   8 O        0.856    -0.403    21.731     6.250
   145   7 N        2.631    -0.368    29.508     8.068
   146   1 H        0.861     0.174     1.249     1.750
   147   6 C        3.792     0.041    19.890     6.351
   148   1 H        0.925     0.063     2.160     2.299
   149   6 C        3.804    -0.066    21.770     6.642
   150   1 H        0.925     0.049     2.330     2.387
   151   1 H        0.924     0.082     1.963     2.191
   152   6 C        2.976     0.044    27.014     8.526
   153   7 N        2.030    -0.327    29.251     8.022
   154   6 C        3.034     0.077    26.246     8.403
   155   1 H        0.925     0.049     2.335     2.390
   156   7 N        2.760    -0.108    23.359     7.178
   157   1 H        0.860     0.225     0.989     1.557
   158   6 C        3.184    -0.020    28.038     8.642
   159   1 H        0.925     0.017     2.772     2.604
   160   6 C        2.758     0.211    23.525     7.943
   161   8 O        0.857    -0.367    21.036     6.149
   162   7 N        2.632    -0.378    29.760     8.102
   163   1 H        0.860     0.162     1.325     1.803
   164   6 C        3.788     0.032    20.053     6.378
   165   1 H        0.925     0.050     2.314     2.379
   166   6 C        3.857    -0.023    20.938     6.508
   167   1 H        0.924     0.045     2.389     2.417
   168   6 C        3.755    -0.103    22.521     6.767
   169   1 H        0.925     0.034     2.525     2.485
   170   1 H        0.925     0.047     2.363     2.404
   171   1 H        0.925     0.022     2.696     2.568
   172   6 C        3.805    -0.057    21.595     6.616
   173   1 H        0.924     0.034     2.527     2.486
   174   1 H        0.925     0.024     2.675     2.558
   175   6 C        3.749    -0.110    22.666     6.790
   176   1 H        0.924     0.028     2.611     2.527
   177   1 H        0.925     0.045     2.379     2.412
   178   1 H        0.924     0.047     2.362     2.403
   179   6 C        2.754     0.268    22.472     7.763
   180   8 O        0.867    -0.530    24.454     6.630
   181   7 N        2.702    -0.161    24.490     7.350
   182   1 H        0.860     0.221     1.004     1.570
   183   6 C        3.798     0.030    20.068     6.378
   184   1 H        0.925     0.076     2.019     2.222
   185   6 C        3.855    -0.023    20.956     6.511
   186   1 H        0.925     0.071     2.073     2.252
   187   6 C        3.758    -0.114    22.740     6.799
   188   1 H        0.924     0.043     2.407     2.426
   189   1 H        0.924     0.054     2.271     2.356
   190   1 H        0.924     0.036     2.502     2.474
   191   6 C        3.805    -0.051    21.483     6.598
   192   1 H        0.924     0.019     2.745     2.591
   193   1 H        0.926     0.043     2.411     2.428
   194   6 C        3.752    -0.105    22.572     6.775
   195   1 H        0.925     0.031     2.569     2.506
   196   1 H        0.925     0.034     2.525     2.485
   197   1 H        0.925     0.053     2.288     2.366
   198   6 C        2.765     0.200    23.734     7.978
   199   8 O        0.856    -0.367    21.029     6.148
   200   1 H        0.860     0.191     1.153     1.682
   201   1 H        0.923     0.064     2.149     2.292
   202   1 H        0.860     0.152     1.387     1.845
   203   1 H        0.923     0.071     2.079     2.255
   204   1 H        0.860     0.185     1.186     1.706
   205   1 H        0.923     0.071     2.075     2.253
   206   1 H        0.860     0.181     1.210     1.723
   207   1 H        0.923     0.063     2.164     2.301
   208   1 H        0.860     0.184     1.191     1.710
   209   1 H        0.923     0.076     2.018     2.221

 Mol. C6AA /au·bohr⁶  :     413235.529722
 Mol. C8AA /au·bohr⁸  :    9227979.676175
 Mol. α(0) /au        :        969.675422


Wiberg/Mayer (AO) data.
largest (>0.10) Wiberg bond orders for each atom

 ---------------------------------------------------------------------------
     #   Z sym  total        # sym  WBO       # sym  WBO       # sym  WBO
 ---------------------------------------------------------------------------
     1   7 N    3.020 --     3 C    1.032     2 H    0.957   200 H    0.950
     2   1 H    0.974 --     1 N    0.957
     3   6 C    3.984 --     1 N    1.032     4 H    0.952     5 C    0.951
                            19 C    0.943
     4   1 H    0.995 --     3 C    0.952
     5   6 C    3.988 --     8 C    1.007     6 H    0.963     7 H    0.957
                             3 C    0.951
     6   1 H    0.993 --     5 C    0.963
     7   1 H    0.996 --     5 C    0.957
     8   6 C    3.985 --    17 C    1.414     9 C    1.409     5 C    1.007
                            13 C    0.105
     9   6 C    3.986 --    11 C    1.436     8 C    1.409    10 H    0.965
                            15 C    0.115
    10   1 H    0.997 --     9 C    0.965
    11   6 C    3.986 --    13 C    1.442     9 C    1.436    12 H    0.968
                            17 C    0.111
    12   1 H    0.996 --    11 C    0.968
    13   6 C    3.989 --    11 C    1.442    15 C    1.434    14 H    0.971
                             8 C    0.105
    14   1 H    0.999 --    13 C    0.971
    15   6 C    3.991 --    17 C    1.441    13 C    1.434    16 H    0.972
                             9 C    0.115
    16   1 H    0.999 --    15 C    0.972
    17   6 C    3.991 --    15 C    1.441     8 C    1.414    18 H    0.966
                            11 C    0.111
    18   1 H    1.000 --    17 C    0.966
    19   6 C    3.927 --    20 O    1.599    21 N    1.297     3 C    0.943
    20   8 O    1.906 --    19 C    1.599    21 N    0.186
    21   7 N    3.471 --    19 C    1.297    23 C    0.992    22 H    0.910
                            20 O    0.186
    22   1 H    0.953 --    21 N    0.910
    23   6 C    3.977 --    31 C    1.003    21 N    0.992    24 H    0.942
                            25 C    0.938
    24   1 H    0.993 --    23 C    0.942
    25   6 C    3.983 --    26 H    0.974    27 H    0.945    23 C    0.938
                            28 C    0.934
    26   1 H    0.998 --    25 C    0.974
    27   1 H    0.996 --    25 C    0.945
    28   6 C    3.935 --    29 O    1.490    30 O    1.486    25 C    0.934
    29   8 O    1.779 --    28 C    1.490    30 O    0.215
    30   8 O    1.778 --    28 C    1.486    29 O    0.215
    31   6 C    3.886 --    32 O    1.868    23 C    1.003   201 H    0.940
    32   8 O    2.038 --    31 C    1.868
    33   7 N    3.015 --    35 C    1.015   202 H    0.961    34 H    0.958
    34   1 H    0.967 --    33 N    0.958
    35   6 C    3.981 --    33 N    1.015    37 C    0.984    48 C    0.950
                            36 H    0.936
    36   1 H    0.993 --    35 C    0.936
    37   6 C    3.993 --    40 C    0.990    35 C    0.984    39 H    0.976
                            38 H    0.972
    38   1 H    0.998 --    37 C    0.972
    39   1 H    0.998 --    37 C    0.976
    40   6 C    3.992 --    37 C    0.990    43 C    0.979    42 H    0.968
                            41 H    0.961
    41   1 H    0.993 --    40 C    0.961
    42   1 H    0.995 --    40 C    0.968
    43   6 C    3.940 --    44 O    1.608    45 N    1.324    40 C    0.979
    44   8 O    1.894 --    43 C    1.608    45 N    0.191
    45   7 N    3.376 --    43 C    1.324    46 H    0.920    47 H    0.901
                            44 O    0.191
    46   1 H    0.943 --    45 N    0.920
    47   1 H    0.925 --    45 N    0.901
    48   6 C    3.930 --    49 O    1.610    50 N    1.285    35 C    0.950
    49   8 O    1.909 --    48 C    1.610    50 N    0.183
    50   7 N    3.456 --    48 C    1.285    52 C    0.978    51 H    0.919
                            49 O    0.183
    51   1 H    0.956 --    50 N    0.919
    52   6 C    3.967 --    54 C    0.981    50 N    0.978    63 C    0.944
                            53 H    0.939
    53   1 H    0.994 --    52 C    0.939
    54   6 C    3.991 --    57 C    1.006    52 C    0.981    56 H    0.973
                            55 H    0.970
    55   1 H    0.997 --    54 C    0.970
    56   1 H    0.997 --    54 C    0.973
    57   6 C    3.990 --    54 C    1.006    59 H    0.969    58 H    0.964
                            60 C    0.935
    58   1 H    0.998 --    57 C    0.964
    59   1 H    0.999 --    57 C    0.969
    60   6 C    3.932 --    62 O    1.488    61 O    1.487    57 C    0.935
    61   8 O    1.771 --    60 C    1.487    62 O    0.214
    62   8 O    1.773 --    60 C    1.488    61 O    0.214
    63   6 C    3.951 --    64 O    1.605    65 N    1.325    52 C    0.944
    64   8 O    1.920 --    63 C    1.605    65 N    0.199
    65   7 N    3.492 --    63 C    1.325    67 C    0.982    66 H    0.906
                            64 O    0.199
    66   1 H    0.955 --    65 N    0.906
    67   6 C    3.962 --    65 N    0.982    79 C    0.956    69 C    0.951
                            68 H    0.942
    68   1 H    0.994 --    67 C    0.942
    69   6 C    3.991 --    75 C    1.010    71 C    1.006    70 H    0.961
                            67 C    0.951
    70   1 H    0.997 --    69 C    0.961
    71   6 C    3.993 --    69 C    1.006    74 H    0.986    72 H    0.984
                            73 H    0.983
    72   1 H    0.998 --    71 C    0.984
    73   1 H    0.997 --    71 C    0.983
    74   1 H    0.998 --    71 C    0.986
    75   6 C    3.993 --    69 C    1.010    78 H    0.986    76 H    0.985
                            77 H    0.983
    76   1 H    0.998 --    75 C    0.985
    77   1 H    0.997 --    75 C    0.983
    78   1 H    0.999 --    75 C    0.986
    79   6 C    3.956 --    80 O    1.611    81 N    1.314    67 C    0.956
    80   8 O    1.925 --    79 C    1.611    81 N    0.194
    81   7 N    3.475 --    79 C    1.314    83 C    0.970    82 H    0.915
                            80 O    0.194
    82   1 H    0.957 --    81 N    0.915
    83   6 C    3.951 --    81 N    0.970    85 C    0.955    98 C    0.945
                            84 H    0.944
    84   1 H    0.994 --    83 C    0.944
    85   6 C    3.982 --    87 C    1.005    91 C    1.000    86 H    0.961
                            83 C    0.955
    86   1 H    0.995 --    85 C    0.961
    87   6 C    3.987 --    85 C    1.005    89 H    0.981    88 H    0.979
                            90 H    0.978
    88   1 H    0.995 --    87 C    0.979
    89   1 H    0.997 --    87 C    0.981
    90   1 H    0.999 --    87 C    0.978
    91   6 C    3.996 --    94 C    1.014    85 C    1.000    92 H    0.977
                            93 H    0.975
    92   1 H    0.998 --    91 C    0.977
    93   1 H    0.999 --    91 C    0.975
    94   6 C    3.994 --    91 C    1.014    95 H    0.990    96 H    0.988
                            97 H    0.985
    95   1 H    0.999 --    94 C    0.990
    96   1 H    0.998 --    94 C    0.988
    97   1 H    0.997 --    94 C    0.985
    98   6 C    3.949 --    99 O    1.623   100 N    1.300    83 C    0.945
    99   8 O    1.931 --    98 C    1.623   100 N    0.189
   100   7 N    3.446 --    98 C    1.300   102 C    0.973   101 H    0.901
                            99 O    0.189
   101   1 H    0.944 --   100 N    0.901
   102   6 C    3.958 --   122 C    0.985   100 N    0.973   104 C    0.958
                           103 H    0.942
   103   1 H    0.991 --   102 C    0.942
   104   6 C    3.978 --   107 C    1.003   105 H    0.973   106 H    0.962
                           102 C    0.958
   105   1 H    0.994 --   104 C    0.973
   106   1 H    0.994 --   104 C    0.962
   107   6 C    3.988 --   110 C    1.008   104 C    1.003   109 H    0.973
                           108 H    0.973
   108   1 H    0.994 --   107 C    0.973
   109   1 H    0.995 --   107 C    0.973
   110   6 C    3.957 --   107 C    1.008   113 N    0.984   112 H    0.961
                           111 H    0.958
   111   1 H    0.993 --   110 C    0.958
   112   1 H    0.993 --   110 C    0.961
   113   7 N    3.463 --   115 C    1.315   110 C    0.984   114 H    0.911
                           116 N    0.101   119 N    0.100
   114   1 H    0.944 --   113 N    0.911
   115   6 C    3.976 --   116 N    1.324   113 N    1.315   119 N    1.307
   116   7 N    3.385 --   115 C    1.324   117 H    0.912   118 H    0.905
                           119 N    0.102   113 N    0.101
   117   1 H    0.937 --   116 N    0.912
   118   1 H    0.925 --   116 N    0.905
   119   7 N    3.377 --   115 C    1.307   120 H    0.918   121 H    0.911
                           116 N    0.102   113 N    0.100
   120   1 H    0.937 --   119 N    0.918
   121   1 H    0.931 --   119 N    0.911
   122   6 C    3.875 --   123 O    1.889   102 C    0.985   203 H    0.937
   123   8 O    2.038 --   122 C    1.889
   124   7 N    3.013 --   126 C    1.036   125 H    0.953   204 H    0.951
   125   1 H    0.971 --   124 N    0.953
   126   6 C    3.986 --   124 N    1.036   143 C    0.981   128 C    0.955
                           127 H    0.925
   127   1 H    0.993 --   126 C    0.925
   128   6 C    3.990 --   131 C    1.006   130 H    0.970   129 H    0.961
                           126 C    0.955
   129   1 H    0.996 --   128 C    0.961
   130   1 H    0.997 --   128 C    0.970
   131   6 C    3.986 --   132 C    1.410   141 C    1.400   128 C    1.006
   132   6 C    3.988 --   134 C    1.451   131 C    1.410   133 H    0.968
                           139 C    0.103
   133   1 H    0.997 --   132 C    0.968
   134   6 C    3.984 --   132 C    1.451   136 C    1.361   135 H    0.970
                           141 C    0.109
   135   1 H    0.998 --   134 C    0.970
   136   6 C    3.925 --   139 C    1.367   134 C    1.361   137 O    1.064
   137   8 O    2.086 --   136 C    1.064   138 H    0.864
   138   1 H    0.885 --   137 O    0.864
   139   6 C    3.985 --   141 C    1.451   136 C    1.367   140 H    0.969
                           132 C    0.103
   140   1 H    0.998 --   139 C    0.969
   141   6 C    3.986 --   139 C    1.451   131 C    1.400   142 H    0.966
                           134 C    0.109
   142   1 H    0.998 --   141 C    0.966
   143   6 C    3.870 --   144 O    1.875   126 C    0.981   205 H    0.934
   144   8 O    2.025 --   143 C    1.875
   145   7 N    3.018 --   147 C    1.013   206 H    0.950   146 H    0.926
   146   1 H    0.970 --   145 N    0.926
   147   6 C    3.982 --   145 N    1.013   160 C    0.989   148 H    0.959
                           149 C    0.933
   148   1 H    0.995 --   147 C    0.959
   149   6 C    3.990 --   152 C    1.016   150 H    0.968   151 H    0.958
                           147 C    0.933
   150   1 H    0.997 --   149 C    0.968
   151   1 H    0.993 --   149 C    0.958
   152   6 C    3.974 --   158 C    1.566   153 N    1.258   149 C    1.016
   153   7 N    2.989 --   154 C    1.529   152 C    1.258   156 N    0.107
   154   6 C    3.955 --   153 N    1.529   156 N    1.288   155 H    0.964
                           158 C    0.114
   155   1 H    0.997 --   154 C    0.964
   156   7 N    3.593 --   154 C    1.288   158 C    1.206   157 H    0.920
                           153 N    0.107
   157   1 H    0.949 --   156 N    0.920
   158   6 C    3.937 --   152 C    1.566   156 N    1.206   159 H    0.968
                           154 C    0.114
   159   1 H    1.000 --   158 C    0.968
   160   6 C    3.872 --   161 O    1.876   147 C    0.989   207 H    0.939
   161   8 O    2.061 --   160 C    1.876
   162   7 N    3.004 --   164 C    1.023   208 H    0.950   163 H    0.946
   163   1 H    0.974 --   162 N    0.946
   164   6 C    3.985 --   162 N    1.023   165 H    0.953   179 C    0.953
                           166 C    0.949
   165   1 H    0.997 --   164 C    0.953
   166   6 C    3.992 --   168 C    1.008   172 C    0.997   167 H    0.961
                           164 C    0.949
   167   1 H    0.997 --   166 C    0.961
   168   6 C    3.992 --   166 C    1.008   169 H    0.984   171 H    0.982
                           170 H    0.982
   169   1 H    0.999 --   168 C    0.984
   170   1 H    0.998 --   168 C    0.982
   171   1 H    0.999 --   168 C    0.982
   172   6 C    3.996 --   175 C    1.015   166 C    0.997   173 H    0.977
Note: The following floating-point exceptions are signalling: IEEE_UNDERFLOW_FLAG IEEE_DENORMAL
normal termination of xtb
                           174 H    0.971
   173   1 H    0.999 --   172 C    0.977
   174   1 H    0.999 --   172 C    0.971
   175   6 C    3.993 --   172 C    1.015   176 H    0.989   178 H    0.984
                           177 H    0.984
   176   1 H    0.999 --   175 C    0.989
   177   1 H    0.998 --   175 C    0.984
   178   1 H    0.998 --   175 C    0.984
   179   6 C    3.940 --   180 O    1.602   181 N    1.302   164 C    0.953
   180   8 O    1.908 --   179 C    1.602   181 N    0.187
   181   7 N    3.485 --   179 C    1.302   183 C    0.973   182 H    0.890
                           180 O    0.187
   182   1 H    0.951 --   181 N    0.890
   183   6 C    3.961 --   181 N    0.973   198 C    0.969   184 H    0.959
                           185 C    0.952
   184   1 H    0.994 --   183 C    0.959
   185   6 C    3.984 --   187 C    1.007   191 C    0.997   186 H    0.953
                           183 C    0.952
   186   1 H    0.995 --   185 C    0.953
   187   6 C    3.993 --   185 C    1.007   188 H    0.984   190 H    0.982
                           189 H    0.979
   188   1 H    0.998 --   187 C    0.984
   189   1 H    0.996 --   187 C    0.979
   190   1 H    0.999 --   187 C    0.982
   191   6 C    3.992 --   194 C    1.015   185 C    0.997   193 H    0.974
                           192 H    0.969
   192   1 H    1.000 --   191 C    0.969
   193   1 H    0.998 --   191 C    0.974
   194   6 C    3.994 --   191 C    1.015   195 H    0.987   197 H    0.983
                           196 H    0.983
   195   1 H    0.998 --   194 C    0.987
   196   1 H    0.999 --   194 C    0.983
   197   1 H    0.997 --   194 C    0.983
   198   6 C    3.865 --   199 O    1.878   183 C    0.969   209 H    0.938
   199   8 O    2.057 --   198 C    1.878
   200   1 H    0.963 --     1 N    0.950
   201   1 H    0.995 --    31 C    0.940
   202   1 H    0.977 --    33 N    0.961
   203   1 H    0.995 --   122 C    0.937
   204   1 H    0.966 --   124 N    0.951
   205   1 H    0.994 --   143 C    0.934
   206   1 H    0.967 --   145 N    0.950
   207   1 H    0.996 --   160 C    0.939
   208   1 H    0.966 --   162 N    0.950
   209   1 H    0.994 --   198 C    0.938
 ---------------------------------------------------------------------------

Topologies differ in total number of bonds
Writing topology from bond orders to xtbtopo.mol

molecular dipole:
                 x           y           z       tot (Debye)
 q only:      -16.240       6.066    -124.130
   full:      -17.280       5.365    -123.467     317.173
molecular quadrupole (traceless):
                xx          xy          yy          xz          yz          zz
 q only:     7723.660    1724.555    8134.228   -4237.027    -382.185  -15857.888
  q+dip:     7548.475    1636.596    8115.369   -4335.664    -462.144  -15663.844
   full:     7551.327    1636.438    8118.340   -4335.619    -460.505  -15669.667


           -------------------------------------------------
          | TOTAL ENERGY             -317.573318165944 Eh   |
          | GRADIENT NORM               0.285852691171 Eh/α |
          | HOMO-LUMO GAP               1.216634043538 eV   |
           -------------------------------------------------

------------------------------------------------------------------------
 * finished run on 2026/01/05 at 09:07:10.848     
------------------------------------------------------------------------
 total:
 * wall-time:     0 d,  0 h,  0 min,  1.515 sec
 *  cpu-time:     0 d,  0 h,  0 min, 21.941 sec
 * ratio c/w:    14.481 speedup
 SCF:
 * wall-time:     0 d,  0 h,  0 min,  1.456 sec
 *  cpu-time:     0 d,  0 h,  0 min, 21.078 sec
 * ratio c/w:    14.478 speedup

