      -----------------------------------------------------------      
     |                   =====================                   |     
     |                           x T B                           |     
     |                   =====================                   |     
     |                         S. Grimme                         |     
     |          Mulliken Center for Theoretical Chemistry        |     
     |                    University of Bonn                     |     
      -----------------------------------------------------------      

   * xtb version 6.7.1 (edcfbbe) compiled by 'conda@c0858423619e' on 2025-09-04

   xtb is free software: you can redistribute it and/or modify it under
   the terms of the GNU Lesser General Public License as published by
   the Free Software Foundation, either version 3 of the License, or
   (at your option) any later version.
   
   xtb is distributed in the hope that it will be useful,
   but WITHOUT ANY WARRANTY; without even the implied warranty of
   MERCHANTABILITY or FITNESS FOR A PARTICULAR PURPOSE.  See the
   GNU Lesser General Public License for more details.
   
   Cite this work as:
   * C. Bannwarth, E. Caldeweyher, S. Ehlert, A. Hansen, P. Pracht,
     J. Seibert, S. Spicher, S. Grimme, WIREs Comput. Mol. Sci., 2020, 11,
     e01493. DOI: 10.1002/wcms.1493
   
   for GFN2-xTB:
   * C. Bannwarth, S. Ehlert and S. Grimme., J. Chem. Theory Comput., 2019,
     15, 1652-1671. DOI: 10.1021/acs.jctc.8b01176
   for GFN1-xTB:
   * S. Grimme, C. Bannwarth, P. Shushkov, J. Chem. Theory Comput., 2017,
     13, 1989-2009. DOI: 10.1021/acs.jctc.7b00118
   for GFN0-xTB:
   * P. Pracht, E. Caldeweyher, S. Ehlert, S. Grimme, ChemRxiv, 2019, preprint.
     DOI: 10.26434/chemrxiv.8326202.v1
   for GFN-FF:
   * S. Spicher and S. Grimme, Angew. Chem. Int. Ed., 2020, 59, 15665-15673.
     DOI: 10.1002/anie.202004239
   
   for ALPB and GBSA implicit solvation:
   * S. Ehlert, M. Stahn, S. Spicher, S. Grimme, J. Chem. Theory Comput.,
     2021, 17, 4250-4261. DOI: 10.1021/acs.jctc.1c00471
   
   for ddCOSMO and CPCM-X implicit solvation:
   * M. Stahn, S. Ehlert, S. Grimme, J. Phys. Chem. A,
     2023, XX, XXXX-XXXX. DOI: 10.1021/acs.jpca.3c04382
   
   for DFT-D4:
   * E. Caldeweyher, C. Bannwarth and S. Grimme, J. Chem. Phys., 2017,
     147, 034112. DOI: 10.1063/1.4993215
   * E. Caldeweyher, S. Ehlert, A. Hansen, H. Neugebauer, S. Spicher,
     C. Bannwarth and S. Grimme, J. Chem. Phys., 2019, 150, 154122.
     DOI: 10.1063/1.5090222
   * E. Caldeweyher, J.-M. Mewes, S. Ehlert and S. Grimme, Phys. Chem. Chem. Phys.
     2020, 22, 8499-8512. DOI: 10.1039/D0CP00502A
   
   for sTDA-xTB:
   * S. Grimme and C. Bannwarth, J. Chem. Phys., 2016, 145, 054103.
     DOI: 10.1063/1.4959605
   
   in the mass-spec context:
   * V. Asgeirsson, C. Bauer and S. Grimme, Chem. Sci., 2017, 8, 4879.
     DOI: 10.1039/c7sc00601b
   * J. Koopman and S. Grimme, ACS Omega 2019, 4, 12, 15120-15133.
     DOI: 10.1021/acsomega.9b02011
   
   for metadynamics refer to:
   * S. Grimme, J. Chem. Theory Comput., 2019, 155, 2847-2862
     DOI: 10.1021/acs.jctc.9b00143
   
   for SPH calculations refer to:
   * S. Spicher and S. Grimme, J. Chem. Theory Comput., 2021, 17, 1701-1714
     DOI: 10.1021/acs.jctc.0c01306
   
   for ONIOM refer to:
   * C. Plett, A. Katbashev, S. Ehlert, S. Grimme, M. Bursch,
     Phys. Chem. Chem. Phys., 2023, 25, 17860-17868. DOI: 10.1039/D3CP02178E
   
   for DIPRO refer to:
   * J. Kohn, N. Gildemeister, S. Grimme, D. Fazzi, A. Hansen,
     J. Chem. Phys., 2023, just accepted.
   
   for PTB refer to:
   * S. Grimme, M. Mueller, A. Hansen, J. Chem. Phys., 2023, 158, 124111.
     DOI: 10.1063/5.0137838
   
   with help from (in alphabetical order)
   P. Atkinson, C. Bannwarth, F. Bohle, G. Brandenburg, E. Caldeweyher
   M. Checinski, S. Dohm, S. Ehlert, S. Ehrlich, I. Gerasimov, C. Hölzer
   A. Katbashev, J. Kohn, J. Koopman, C. Lavigne, S. Lehtola, F. März, M. Müller,
   F. Musil, H. Neugebauer, J. Pisarek, C. Plett, P. Pracht, F. Pultar,
   J. Seibert, P. Shushkov, S. Spicher, M. Stahn, M. Steiner, T. Strunk,
   J. Stückrath, T. Rose, and J. Unsleber
   
 * started run on 2026/01/05 at 09:07:41.465     
   ID    Z sym.   atoms
    1    7 N      1, 21, 42, 50, 53, 59, 78
    2    1 H      2, 4, 6, 7, 10, 12, 14, 16, 18, 22, 24, 26, 27, 30, 32, 35,
                  37, 39, 43, 45, 47, 48, 52, 54, 56, 60, 62, 64, 66-68, 70,
                  71, 73-75, 79, 81, 83, 85-87, 89, 90, 92-94, 97-104
    3    6 C      3, 5, 8, 9, 11, 13, 15, 17, 19, 23, 25, 28, 29, 31, 33, 36,
                  38, 40, 44, 46, 49, 51, 55, 57, 61, 63, 65, 69, 72, 76, 80,
                  82, 84, 88, 91, 95
    4    8 O      20, 34, 41, 58, 77, 96

           -------------------------------------------------
          |                Calculation Setup                |
           -------------------------------------------------

          program call               : xtb /home/antonio_mesquita/Documentos/gmx_ISA_project/testes_arquivos_primeiros/gmx_ISA_testes/testes_qm_xtb/QM_analysis/QM_FRAMES_CAPPED/frame_4600ps/residues_pocket_capped_4600ps.xyz --gfn 2 --alpb water --chrg 0 --etemp 1500 --cycles 1000
          coordinate file            : /home/antonio_mesquita/Documentos/gmx_ISA_project/testes_arquivos_primeiros/gmx_ISA_testes/testes_qm_xtb/QM_analysis/QM_FRAMES_CAPPED/frame_4600ps/residues_pocket_capped_4600ps.xyz
          omp threads                :                    16


molecular fragmentation (1/2 indicates fragments):
111111111111111111112222222222222222222222222222222222222222222222222222
22222222222222222222222211222222
# atoms in fragment 1/2:    22    82
 fragment masses (1/2) :      149.19      532.68
CMA distance (Bohr)    :  14.320
constraining FC (au)   :  0.0500

           -------------------------------------------------
          |                 G F N 2 - x T B                 |
           -------------------------------------------------

        Reference                      10.1021/acs.jctc.8b01176
      * Hamiltonian:
        H0-scaling (s, p, d)           1.850000    2.230000    2.230000
        zeta-weighting                 0.500000
      * Dispersion:
        s8                             2.700000
        a1                             0.520000
        a2                             5.000000
        s9                             5.000000
      * Repulsion:
        kExp                           1.500000    1.000000
        rExp                           1.000000
      * Coulomb:
        alpha                          2.000000
        third order                    shell-resolved
        anisotropic                    true
        a3                             3.000000
        a5                             4.000000
        cn-shift                       1.200000
        cn-exp                         4.000000
        max-rad                        5.000000

      * Solvation model:               ALPB
        Solvent                        water
        Parameter file                 internal GFN2-xTB/ALPB
        Dielectric constant                8.0200E+01
        Reference state                gsolv [1 M gas/solution]
        Free energy shift                  1.0808E-03 Eh       6.7819E-01 kcal/mol
        Temperature                        2.9815E+02 K
        Density                            1.0000E+00 kg/L
        Solvent mass                       1.8000E+01 g/mol
        Interaction kernel             P16
        Born radius scaling (c1)           1.4744E+00
        Born radii integrator          GBOBC
        Born offset                        0.0000E+00 a0       0.0000E+00 AA
        H-bond correction              true
        Ion screening                  false
        Surface tension                    1.0000E-05 Eh       1.5569E+01 dyn/cm
        Grid points                               230 per atom

          ...................................................
          :                      SETUP                      :
          :.................................................:
          :  # basis functions                 251          :
          :  # atomic orbitals                 251          :
          :  # shells                          153          :
          :  # electrons                       270          :
          :  max. iterations                   250          :
          :  Hamiltonian                  GFN2-xTB          :
          :  restarted?                      false          :
          :  GBSA solvation                   true          :
          :  PC potential                    false          :
          :  electronic temp.         1500.0000000     K    :
          :  accuracy                    1.0000000          :
          :  -> integral cutoff          0.2500000E+02      :
          :  -> integral neglect         0.1000000E-07      :
          :  -> SCF convergence          0.1000000E-05 Eh   :
          :  -> wf. convergence          0.1000000E-03 e    :
          :  Broyden damping             0.4000000          :
          :  net charge                          0          :
          :  unpaired electrons                  0          :
          ...................................................

 iter      E             dE          RMSdq      gap      omega  full diag
   1   -151.5049776 -0.151505E+03  0.417E+00    1.96       0.0  T
   2   -151.7631063 -0.258129E+00  0.220E+00    1.06       1.0  T
   3   -151.7704350 -0.732865E-02  0.122E+00    1.65       1.0  T
   4   -151.7903614 -0.199264E-01  0.246E-01    1.11       1.0  T
   5   -151.7939356 -0.357426E-02  0.905E-02    1.25       1.0  T
   6   -151.7940902 -0.154517E-03  0.501E-02    1.23       1.0  T
   7   -151.7941429 -0.527133E-04  0.193E-02    1.22       1.0  T
   8   -151.7941473 -0.444348E-05  0.618E-03    1.23       1.6  T
   9   -151.7941481 -0.769667E-06  0.328E-03    1.22       3.0  T
  10   -151.7941483 -0.234406E-06  0.145E-03    1.23       6.7  T
  11   -151.7941484 -0.370252E-07  0.587E-04    1.22      16.7  T
  12   -151.7941484 -0.674109E-08  0.236E-04    1.22      41.5  T

   *** convergence criteria satisfied after 12 iterations ***

         #    Occupation            Energy/Eh            Energy/eV
      -------------------------------------------------------------
         1        2.0000           -0.7300704             -19.8662
       ...           ...                  ...                  ...
       129        2.0000           -0.3851278             -10.4799
       130        2.0000           -0.3784587             -10.2984
       131        2.0000           -0.3761479             -10.2355
       132        1.9979           -0.3496524              -9.5145
       133        1.9966           -0.3472361              -9.4488
       134        1.9889           -0.3416134              -9.2958
       135        1.9868           -0.3407895              -9.2734 (HOMO)
       136        0.0228           -0.2957748              -8.0484 (LUMO)
       137        0.0058           -0.2892620              -7.8712
       138        0.0008           -0.2796719              -7.6103
       139        0.0005           -0.2771932              -7.5428
       140                         -0.2240054              -6.0955
       ...                                ...                  ...
       251                          0.6306721              17.1615
      -------------------------------------------------------------
                  HL-Gap            0.0450146 Eh            1.2249 eV
             Fermi-level           -0.3169792 Eh           -8.6254 eV

 SCC (total)                   0 d,  0 h,  0 min,  0.453 sec
 SCC setup                      ...        0 min,  0.005 sec (  1.132%)
 Dispersion                     ...        0 min,  0.006 sec (  1.409%)
 classical contributions        ...        0 min,  0.000 sec (  0.072%)
 integral evaluation            ...        0 min,  0.016 sec (  3.556%)
 iterations                     ...        0 min,  0.319 sec ( 70.346%)
 molecular gradient             ...        0 min,  0.104 sec ( 22.891%)
 printout                       ...        0 min,  0.003 sec (  0.587%)

         :::::::::::::::::::::::::::::::::::::::::::::::::::::
         ::                     SUMMARY                     ::
         :::::::::::::::::::::::::::::::::::::::::::::::::::::
         :: total energy            -149.801761397157 Eh    ::
         :: total w/o Gsasa/hb      -149.782296768890 Eh    ::
         :: gradient norm              0.178652267411 Eh/a0 ::
         :: HOMO-LUMO gap              1.224910341807 eV    ::
         ::.................................................::
         :: SCC energy              -151.788988875490 Eh    ::
         :: -> isotropic ES            0.266943226258 Eh    ::
         :: -> anisotropic ES          0.029086007965 Eh    ::
         :: -> anisotropic XC          0.076388912448 Eh    ::
         :: -> dispersion             -0.107521558010 Eh    ::
         :: -> Gsolv                  -0.056034723226 Eh    ::
         ::    -> Gelec               -0.036570094958 Eh    ::
         ::    -> Gsasa               -0.001232357510 Eh    ::
         ::    -> Ghb                 -0.019313030455 Eh    ::
         ::    -> Gshift               0.001080759698 Eh    ::
         :: repulsion energy           1.987227478332 Eh    ::
         :: add. restraining           0.000000000000 Eh    ::
         :: total charge               0.000000000000 e     ::
         :::::::::::::::::::::::::::::::::::::::::::::::::::::

           -------------------------------------------------
          |                Property Printout                |
           -------------------------------------------------

    * Orbital Energies and Occupations

         #    Occupation            Energy/Eh            Energy/eV
      -------------------------------------------------------------
         1        2.0000           -0.7300704             -19.8662
       ...           ...                  ...                  ...
       123        2.0000           -0.4092410             -11.1360
       124        2.0000           -0.3992176             -10.8633
       125        2.0000           -0.3984644             -10.8428
       126        2.0000           -0.3975494             -10.8179
       127        2.0000           -0.3946986             -10.7403
       128        2.0000           -0.3916773             -10.6581
       129        2.0000           -0.3851278             -10.4799
       130        2.0000           -0.3784587             -10.2984
       131        2.0000           -0.3761479             -10.2355
       132        1.9979           -0.3496524              -9.5145
       133        1.9966           -0.3472361              -9.4488
       134        1.9889           -0.3416134              -9.2958
       135        1.9868           -0.3407895              -9.2734 (HOMO)
       136        0.0228           -0.2957748              -8.0484 (LUMO)
       137        0.0058           -0.2892620              -7.8712
       138        0.0008           -0.2796719              -7.6103
       139        0.0005           -0.2771932              -7.5428
       140                         -0.2240054              -6.0955
       141                         -0.2239147              -6.0930
       142                         -0.2200876              -5.9889
       143                         -0.2152859              -5.8582
       144                         -0.2146959              -5.8422
       145                         -0.2047963              -5.5728
       146                         -0.1734834              -4.7207
       ...                                ...                  ...
       251                          0.6306721              17.1615
      -------------------------------------------------------------
                  HL-Gap            0.0450146 Eh            1.2249 eV
             Fermi-level           -0.3169792 Eh           -8.6254 eV

     #   Z          covCN         q      C6AA      α(0)
     1   7 N        2.630    -0.364    29.378     8.050
     2   1 H        0.860     0.169     1.277     1.770
     3   6 C        3.785     0.042    19.888     6.352
     4   1 H        0.925     0.079     1.993     2.208
     5   6 C        3.806    -0.074    21.905     6.663
     6   1 H        0.925     0.065     2.137     2.286
     7   1 H        0.924     0.052     2.298     2.370
     8   6 C        2.954     0.010    27.794     8.647
     9   6 C        2.924    -0.046    29.130     8.851
    10   1 H        0.925     0.039     2.462     2.454
    11   6 C        2.909    -0.040    28.983     8.828
    12   1 H        0.926     0.041     2.430     2.438
    13   6 C        2.912    -0.039    28.968     8.826
    14   1 H        0.925     0.037     2.489     2.467
    15   6 C        2.910    -0.038    28.934     8.820
    16   1 H        0.926     0.034     2.530     2.487
    17   6 C        2.921    -0.042    29.032     8.836
    18   1 H        0.926     0.022     2.708     2.573
    19   6 C        2.758     0.208    23.589     7.953
    20   8 O        0.856    -0.393    21.536     6.222
    21   7 N        2.633    -0.367    29.459     8.061
    22   1 H        0.860     0.177     1.229     1.737
    23   6 C        3.784     0.038    19.947     6.362
    24   1 H        0.925     0.085     1.933     2.174
    25   6 C        3.814    -0.068    21.791     6.644
    26   1 H        0.925     0.060     2.200     2.319
    27   1 H        0.925     0.049     2.332     2.388
    28   6 C        2.962     0.007    27.872     8.659
    29   6 C        2.913    -0.043    29.059     8.840
    30   1 H        0.925     0.046     2.371     2.408
    31   6 C        2.910    -0.077    29.914     8.968
    32   1 H        0.925     0.044     2.395     2.420
    33   6 C        2.833     0.138    24.973     8.189
    34   8 O        1.659    -0.461    22.074     6.342
    35   1 H        0.806     0.374     0.536     1.150
    36   6 C        2.914    -0.060    29.494     8.905
    37   1 H        0.925     0.047     2.362     2.403
    38   6 C        2.910    -0.041    29.012     8.832
    39   1 H        0.926     0.045     2.384     2.414
    40   6 C        2.758     0.196    23.817     7.992
    41   8 O        0.856    -0.415    21.984     6.286
    42   7 N        2.635    -0.350    29.019     8.001
    43   1 H        0.860     0.154     1.374     1.836
    44   6 C        3.787     0.045    19.834     6.343
    45   1 H        0.925     0.053     2.288     2.366
    46   6 C        3.814    -0.078    21.972     6.672
    47   1 H        0.924     0.051     2.303     2.373
    48   1 H        0.925     0.068     2.112     2.272
    49   6 C        3.186     0.047    26.492     8.398
    50   7 N        1.894    -0.322    29.188     8.009
    51   6 C        3.062     0.081    26.140     8.384
    52   1 H        0.926     0.050     2.326     2.385
    53   7 N        2.837    -0.106    23.309     7.170
    54   1 H        0.860     0.220     1.011     1.575
    55   6 C        2.964    -0.033    28.831     8.807
    56   1 H        0.925     0.045     2.390     2.417
    57   6 C        2.761     0.213    23.497     7.938
    58   8 O        0.856    -0.356    20.818     6.117
    59   7 N        2.631    -0.372    29.603     8.081
    60   1 H        0.861     0.157     1.356     1.824
    61   6 C        3.789     0.029    20.093     6.384
    62   1 H        0.925     0.051     2.313     2.378
    63   6 C        3.854    -0.030    21.071     6.529
    64   1 H        0.924     0.043     2.412     2.429
    65   6 C        3.757    -0.110    22.662     6.787
    66   1 H        0.925     0.043     2.406     2.426
    67   1 H        0.925     0.038     2.480     2.463
    68   1 H        0.924     0.044     2.392     2.418
    69   6 C        3.805    -0.051    21.484     6.599
    70   1 H        0.925     0.025     2.656     2.549
    71   1 H        0.924     0.008     2.918     2.672
    72   6 C        3.750    -0.111    22.680     6.792
    73   1 H        0.925     0.045     2.382     2.413
    74   1 H        0.925     0.048     2.348     2.396
    75   1 H        0.925     0.036     2.499     2.472
    76   6 C        2.746     0.273    22.385     7.747
    77   8 O        0.861    -0.522    24.275     6.606
    78   7 N        2.689    -0.160    24.452     7.344
    79   1 H        0.860     0.223     0.996     1.564
    80   6 C        3.799     0.030    20.074     6.379
    81   1 H        0.925     0.076     2.018     2.222
    82   6 C        3.854    -0.017    20.836     6.492
    83   1 H        0.925     0.056     2.242     2.341
    84   6 C        3.759    -0.121    22.865     6.817
    85   1 H        0.925     0.038     2.472     2.459
    86   1 H        0.925     0.051     2.312     2.378
    87   1 H        0.925     0.055     2.259     2.350
    88   6 C        3.813    -0.057    21.593     6.614
    89   1 H        0.924     0.021     2.716     2.577
    90   1 H        0.925     0.032     2.554     2.499
    91   6 C        3.748    -0.108    22.641     6.787
    92   1 H        0.923     0.044     2.394     2.420
    93   1 H        0.925     0.040     2.445     2.445
    94   1 H        0.925     0.046     2.368     2.407
    95   6 C        2.761     0.206    23.633     7.961
    96   8 O        0.856    -0.372    21.128     6.163
    97   1 H        0.860     0.184     1.191     1.709
    98   1 H        0.923     0.053     2.288     2.366
    99   1 H        0.860     0.183     1.199     1.716
   100   1 H        0.923     0.048     2.339     2.392
   101   1 H        0.860     0.174     1.247     1.749
   102   1 H        0.923     0.057     2.238     2.339
   103   1 H        0.860     0.182     1.205     1.720
   104   1 H        0.923     0.071     2.074     2.252

 Mol. C6AA /au·bohr⁶  :     103302.651009
 Mol. C8AA /au·bohr⁸  :    2335808.525081
 Mol. α(0) /au        :        492.087281


Wiberg/Mayer (AO) data.
largest (>0.10) Wiberg bond orders for each atom

 ---------------------------------------------------------------------------
     #   Z sym  total        # sym  WBO       # sym  WBO       # sym  WBO
 ---------------------------------------------------------------------------
     1   7 N    3.060 --     3 C    1.024     2 H    0.957    97 H    0.952
     2   1 H    0.971 --     1 N    0.957
     3   6 C    3.982 --     1 N    1.024    19 C    0.972     5 C    0.948
                             4 H    0.947
     4   1 H    0.993 --     3 C    0.947
     5   6 C    3.988 --     8 C    1.009     6 H    0.966     7 H    0.960
                             3 C    0.948
     6   1 H    0.995 --     5 C    0.966
     7   1 H    0.997 --     5 C    0.960
     8   6 C    3.987 --    17 C    1.415     9 C    1.407     5 C    1.009
                            13 C    0.108
     9   6 C    3.985 --    11 C    1.440     8 C    1.407    10 H    0.968
                            15 C    0.114
    10   1 H    0.998 --     9 C    0.968
    11   6 C    3.990 --    13 C    1.441     9 C    1.440    12 H    0.971
                            17 C    0.109
    12   1 H    0.998 --    11 C    0.971
    13   6 C    3.988 --    11 C    1.441    15 C    1.433    14 H    0.971
                             8 C    0.108
    14   1 H    0.998 --    13 C    0.971
    15   6 C    3.989 --    17 C    1.440    13 C    1.433    16 H    0.970
                             9 C    0.114
    16   1 H    0.999 --    15 C    0.970
    17   6 C    3.991 --    15 C    1.440     8 C    1.415    18 H    0.967
                            11 C    0.109
    18   1 H    1.000 --    17 C    0.967
    19   6 C    3.878 --    20 O    1.879     3 C    0.972    98 H    0.938
    20   8 O    2.034 --    19 C    1.879
    21   7 N    3.041 --    23 C    1.045    99 H    0.951    22 H    0.948
    22   1 H    0.969 --    21 N    0.948
    23   6 C    3.985 --    21 N    1.045    40 C    0.984    25 C    0.951
                            24 H    0.902
    24   1 H    0.993 --    23 C    0.902
    25   6 C    3.989 --    28 C    1.009    27 H    0.968    26 H    0.967
                            23 C    0.951
    26   1 H    0.996 --    25 C    0.967
    27   1 H    0.997 --    25 C    0.968
    28   6 C    3.987 --    29 C    1.412    38 C    1.401    25 C    1.009
    29   6 C    3.990 --    31 C    1.448    28 C    1.412    30 H    0.969
                            36 C    0.108
    30   1 H    0.998 --    29 C    0.969
    31   6 C    3.985 --    29 C    1.448    33 C    1.373    32 H    0.967
                            38 C    0.104
    32   1 H    0.998 --    31 C    0.967
    33   6 C    3.936 --    31 C    1.373    36 C    1.364    34 O    1.068
    34   8 O    2.063 --    33 C    1.068    35 H    0.841
    35   1 H    0.860 --    34 O    0.841
    36   6 C    3.987 --    38 C    1.456    33 C    1.364    37 H    0.969
                            29 C    0.108
    37   1 H    0.998 --    36 C    0.969
    38   6 C    3.988 --    36 C    1.456    28 C    1.401    39 H    0.963
                            31 C    0.104
    39   1 H    0.998 --    38 C    0.963
    40   6 C    3.879 --    41 O    1.847    23 C    0.984   100 H    0.937
    41   8 O    2.020 --    40 C    1.847
    42   7 N    3.011 --    44 C    1.008    43 H    0.954   101 H    0.953
    43   1 H    0.976 --    42 N    0.954
    44   6 C    3.983 --    42 N    1.008    57 C    0.982    45 H    0.963
                            46 C    0.944
    45   1 H    0.996 --    44 C    0.963
    46   6 C    3.987 --    49 C    1.007    47 H    0.971    48 H    0.962
                            44 C    0.944
    47   1 H    0.997 --    46 C    0.971
    48   1 H    0.995 --    46 C    0.962
    49   6 C    3.973 --    55 C    1.565    50 N    1.275    46 C    1.007
    50   7 N    2.991 --    51 C    1.516    49 C    1.275    53 N    0.106
    51   6 C    3.958 --    50 N    1.516    53 N    1.301    52 H    0.964
                            55 C    0.121
    52   1 H    0.997 --    51 C    0.964
    53   7 N    3.594 --    51 C    1.301    55 C    1.197    54 H    0.923
                            50 N    0.106
    54   1 H    0.952 --    53 N    0.923
    55   6 C    3.932 --    49 C    1.565    53 N    1.197    56 H    0.967
                            51 C    0.121
    56   1 H    0.998 --    55 C    0.967
    57   6 C    3.878 --    58 O    1.895    44 C    0.982   102 H    0.938
    58   8 O    2.066 --    57 C    1.895
    59   7 N    3.016 --    61 C    1.022    60 H    0.956   103 H    0.952
    60   1 H    0.975 --    59 N    0.956
    61   6 C    3.981 --    59 N    1.022    62 H    0.960    63 C    0.949
                            76 C    0.944
    62   1 H    0.996 --    61 C    0.960
    63   6 C    3.990 --    65 C    1.010    69 C    0.995    64 H    0.963
                            61 C    0.949
    64   1 H    0.997 --    63 C    0.963
    65   6 C    3.995 --    63 C    1.010    67 H    0.982    68 H    0.982
                            66 H    0.980
    66   1 H    0.998 --    65 C    0.980
    67   1 H    0.999 --    65 C    0.982
    68   1 H    0.998 --    65 C    0.982
    69   6 C    3.996 --    72 C    1.014    63 C    0.995    70 H    0.977
                            71 H    0.974
    70   1 H    0.999 --    69 C    0.977
    71   1 H    1.000 --    69 C    0.974
    72   6 C    3.994 --    69 C    1.014    75 H    0.986    73 H    0.986
                            74 H    0.985
    73   1 H    0.998 --    72 C    0.986
    74   1 H    0.998 --    72 C    0.985
    75   1 H    0.998 --    72 C    0.986
    76   6 C    3.941 --    77 O    1.613    78 N    1.307    61 C    0.944
    77   8 O    1.918 --    76 C    1.613    78 N    0.192
    78   7 N    3.480 --    76 C    1.307    80 C    0.963    79 H    0.903
                            77 O    0.192
    79   1 H    0.950 --    78 N    0.903
    80   6 C    3.964 --    95 C    0.974    78 N    0.963    82 C    0.959
                            81 H    0.957
    81   1 H    0.994 --    80 C    0.957
    82   6 C    3.988 --    84 C    1.004    88 C    0.995    83 H    0.965
                            80 C    0.959
    83   1 H    0.997 --    82 C    0.965
    84   6 C    3.990 --    82 C    1.004    86 H    0.986    85 H    0.984
                            87 H    0.978
    85   1 H    0.998 --    84 C    0.984
    86   1 H    0.997 --    84 C    0.986
    87   1 H    0.996 --    84 C    0.978
    88   6 C    3.994 --    91 C    1.014    82 C    0.995    90 H    0.974
                            89 H    0.973
    89   1 H    0.999 --    88 C    0.973
    90   1 H    0.999 --    88 C    0.974
    91   6 C    3.994 --    88 C    1.014    94 H    0.986    93 H    0.984
Note: The following floating-point exceptions are signalling: IEEE_UNDERFLOW_FLAG IEEE_DENORMAL
normal termination of xtb
                            92 H    0.982
    92   1 H    0.998 --    91 C    0.982
    93   1 H    0.998 --    91 C    0.984
    94   1 H    0.998 --    91 C    0.986
    95   6 C    3.863 --    96 O    1.881    80 C    0.974   104 H    0.938
    96   8 O    2.034 --    95 C    1.881
    97   1 H    0.966 --     1 N    0.952
    98   1 H    0.997 --    19 C    0.938
    99   1 H    0.967 --    21 N    0.951
   100   1 H    0.997 --    40 C    0.937
   101   1 H    0.969 --    42 N    0.953
   102   1 H    0.997 --    57 C    0.938
   103   1 H    0.967 --    59 N    0.952
   104   1 H    0.995 --    95 C    0.938
 ---------------------------------------------------------------------------

Topologies differ in total number of bonds
Writing topology from bond orders to xtbtopo.mol

molecular dipole:
                 x           y           z       tot (Debye)
 q only:        0.563       1.431       0.703
   full:        0.288       1.159       0.743       3.575
molecular quadrupole (traceless):
                xx          xy          yy          xz          yz          zz
 q only:      -87.866     139.431     -53.534      99.546     237.528     141.401
  q+dip:     -110.241     126.633     -59.555      49.128     196.663     169.796
   full:     -108.707     127.287     -57.369      50.240     197.746     166.076


           -------------------------------------------------
          | TOTAL ENERGY             -149.801761397157 Eh   |
          | GRADIENT NORM               0.178652267411 Eh/α |
          | HOMO-LUMO GAP               1.224910341807 eV   |
           -------------------------------------------------

------------------------------------------------------------------------
 * finished run on 2026/01/05 at 09:07:41.948     
------------------------------------------------------------------------
 total:
 * wall-time:     0 d,  0 h,  0 min,  0.483 sec
 *  cpu-time:     0 d,  0 h,  0 min,  7.114 sec
 * ratio c/w:    14.732 speedup
 SCF:
 * wall-time:     0 d,  0 h,  0 min,  0.454 sec
 *  cpu-time:     0 d,  0 h,  0 min,  6.672 sec
 * ratio c/w:    14.703 speedup

