      -----------------------------------------------------------      
     |                   =====================                   |     
     |                           x T B                           |     
     |                   =====================                   |     
     |                         S. Grimme                         |     
     |          Mulliken Center for Theoretical Chemistry        |     
     |                    University of Bonn                     |     
      -----------------------------------------------------------      

   * xtb version 6.7.1 (edcfbbe) compiled by 'conda@c0858423619e' on 2025-09-04

   xtb is free software: you can redistribute it and/or modify it under
   the terms of the GNU Lesser General Public License as published by
   the Free Software Foundation, either version 3 of the License, or
   (at your option) any later version.
   
   xtb is distributed in the hope that it will be useful,
   but WITHOUT ANY WARRANTY; without even the implied warranty of
   MERCHANTABILITY or FITNESS FOR A PARTICULAR PURPOSE.  See the
   GNU Lesser General Public License for more details.
   
   Cite this work as:
   * C. Bannwarth, E. Caldeweyher, S. Ehlert, A. Hansen, P. Pracht,
     J. Seibert, S. Spicher, S. Grimme, WIREs Comput. Mol. Sci., 2020, 11,
     e01493. DOI: 10.1002/wcms.1493
   
   for GFN2-xTB:
   * C. Bannwarth, S. Ehlert and S. Grimme., J. Chem. Theory Comput., 2019,
     15, 1652-1671. DOI: 10.1021/acs.jctc.8b01176
   for GFN1-xTB:
   * S. Grimme, C. Bannwarth, P. Shushkov, J. Chem. Theory Comput., 2017,
     13, 1989-2009. DOI: 10.1021/acs.jctc.7b00118
   for GFN0-xTB:
   * P. Pracht, E. Caldeweyher, S. Ehlert, S. Grimme, ChemRxiv, 2019, preprint.
     DOI: 10.26434/chemrxiv.8326202.v1
   for GFN-FF:
   * S. Spicher and S. Grimme, Angew. Chem. Int. Ed., 2020, 59, 15665-15673.
     DOI: 10.1002/anie.202004239
   
   for ALPB and GBSA implicit solvation:
   * S. Ehlert, M. Stahn, S. Spicher, S. Grimme, J. Chem. Theory Comput.,
     2021, 17, 4250-4261. DOI: 10.1021/acs.jctc.1c00471
   
   for ddCOSMO and CPCM-X implicit solvation:
   * M. Stahn, S. Ehlert, S. Grimme, J. Phys. Chem. A,
     2023, XX, XXXX-XXXX. DOI: 10.1021/acs.jpca.3c04382
   
   for DFT-D4:
   * E. Caldeweyher, C. Bannwarth and S. Grimme, J. Chem. Phys., 2017,
     147, 034112. DOI: 10.1063/1.4993215
   * E. Caldeweyher, S. Ehlert, A. Hansen, H. Neugebauer, S. Spicher,
     C. Bannwarth and S. Grimme, J. Chem. Phys., 2019, 150, 154122.
     DOI: 10.1063/1.5090222
   * E. Caldeweyher, J.-M. Mewes, S. Ehlert and S. Grimme, Phys. Chem. Chem. Phys.
     2020, 22, 8499-8512. DOI: 10.1039/D0CP00502A
   
   for sTDA-xTB:
   * S. Grimme and C. Bannwarth, J. Chem. Phys., 2016, 145, 054103.
     DOI: 10.1063/1.4959605
   
   in the mass-spec context:
   * V. Asgeirsson, C. Bauer and S. Grimme, Chem. Sci., 2017, 8, 4879.
     DOI: 10.1039/c7sc00601b
   * J. Koopman and S. Grimme, ACS Omega 2019, 4, 12, 15120-15133.
     DOI: 10.1021/acsomega.9b02011
   
   for metadynamics refer to:
   * S. Grimme, J. Chem. Theory Comput., 2019, 155, 2847-2862
     DOI: 10.1021/acs.jctc.9b00143
   
   for SPH calculations refer to:
   * S. Spicher and S. Grimme, J. Chem. Theory Comput., 2021, 17, 1701-1714
     DOI: 10.1021/acs.jctc.0c01306
   
   for ONIOM refer to:
   * C. Plett, A. Katbashev, S. Ehlert, S. Grimme, M. Bursch,
     Phys. Chem. Chem. Phys., 2023, 25, 17860-17868. DOI: 10.1039/D3CP02178E
   
   for DIPRO refer to:
   * J. Kohn, N. Gildemeister, S. Grimme, D. Fazzi, A. Hansen,
     J. Chem. Phys., 2023, just accepted.
   
   for PTB refer to:
   * S. Grimme, M. Mueller, A. Hansen, J. Chem. Phys., 2023, 158, 124111.
     DOI: 10.1063/5.0137838
   
   with help from (in alphabetical order)
   P. Atkinson, C. Bannwarth, F. Bohle, G. Brandenburg, E. Caldeweyher
   M. Checinski, S. Dohm, S. Ehlert, S. Ehrlich, I. Gerasimov, C. Hölzer
   A. Katbashev, J. Kohn, J. Koopman, C. Lavigne, S. Lehtola, F. März, M. Müller,
   F. Musil, H. Neugebauer, J. Pisarek, C. Plett, P. Pracht, F. Pultar,
   J. Seibert, P. Shushkov, S. Spicher, M. Stahn, M. Steiner, T. Strunk,
   J. Stückrath, T. Rose, and J. Unsleber
   
 * started run on 2026/01/05 at 09:07:21.833     
   ID    Z sym.   atoms
    1    7 N      1, 21, 33, 45, 50, 65, 81, 100, 121, 129, 132, 138, 157
    2    1 H      2, 4, 6, 7, 10, 12, 14, 16, 18, 22, 24, 26, 27, 34, 36, 38,
                  39, 41, 42, 46, 47, 51, 53, 55, 56, 58, 59, 66, 68, 70,
                  72-74, 76-78, 82, 84, 86, 88-90, 92, 93, 95-97, 101, 103,
                  105, 106, 109, 111, 114, 116, 118, 122, 124, 126, 127, 131,
                  133, 135, 139, 141, 143, 145-147, 149, 150, 152-154, 158,
                  160, 162, 164-166, 168, 169, 171-173, 176-185
    3    6 C      3, 5, 8, 9, 11, 13, 15, 17, 19, 23, 25, 28, 31, 35, 37, 40,
                  43, 48, 52, 54, 57, 60, 63, 67, 69, 71, 75, 79, 83, 85, 87,
                  91, 94, 98, 102, 104, 107, 108, 110, 112, 115, 117, 119,
                  123, 125, 128, 130, 134, 136, 140, 142, 144, 148, 151, 155,
                  159, 161, 163, 167, 170, 174
    4    8 O      20, 29, 30, 32, 44, 49, 61, 62, 64, 80, 99, 113, 120, 137,
                  156, 175

           -------------------------------------------------
          |                Calculation Setup                |
           -------------------------------------------------

          program call               : xtb /home/antonio_mesquita/Documentos/gmx_ISA_project/testes_arquivos_primeiros/gmx_ISA_testes/testes_qm_xtb/QM_analysis/QM_FRAMES_CAPPED/frame_3600ps/residues_pocket_capped_3600ps.xyz --gfn 2 --alpb water --chrg -2 --etemp 1500 --cycles 1000
          coordinate file            : /home/antonio_mesquita/Documentos/gmx_ISA_project/testes_arquivos_primeiros/gmx_ISA_testes/testes_qm_xtb/QM_analysis/QM_FRAMES_CAPPED/frame_3600ps/residues_pocket_capped_3600ps.xyz
          omp threads                :                    16


molecular fragmentation (1/2 indicates fragments):
111111111111111111111111111111112222222222222222222222222222222222222222
222222222222222222222222222222222222222222222222222222222222222222222222
22222222222222222222222222222221122222222
# atoms in fragment 1/2:    34   151
 fragment masses (1/2) :      263.27     1003.22
CMA distance (Bohr)    :  20.645
constraining FC (au)   :  0.0500

           -------------------------------------------------
          |                 G F N 2 - x T B                 |
           -------------------------------------------------

        Reference                      10.1021/acs.jctc.8b01176
      * Hamiltonian:
        H0-scaling (s, p, d)           1.850000    2.230000    2.230000
        zeta-weighting                 0.500000
      * Dispersion:
        s8                             2.700000
        a1                             0.520000
        a2                             5.000000
        s9                             5.000000
      * Repulsion:
        kExp                           1.500000    1.000000
        rExp                           1.000000
      * Coulomb:
        alpha                          2.000000
        third order                    shell-resolved
        anisotropic                    true
        a3                             3.000000
        a5                             4.000000
        cn-shift                       1.200000
        cn-exp                         4.000000
        max-rad                        5.000000

      * Solvation model:               ALPB
        Solvent                        water
        Parameter file                 internal GFN2-xTB/ALPB
        Dielectric constant                8.0200E+01
        Reference state                gsolv [1 M gas/solution]
        Free energy shift                  1.0808E-03 Eh       6.7819E-01 kcal/mol
        Temperature                        2.9815E+02 K
        Density                            1.0000E+00 kg/L
        Solvent mass                       1.8000E+01 g/mol
        Interaction kernel             P16
        Born radius scaling (c1)           1.4744E+00
        Born radii integrator          GBOBC
        Born offset                        0.0000E+00 a0       0.0000E+00 AA
        H-bond correction              true
        Ion screening                  false
        Surface tension                    1.0000E-05 Eh       1.5569E+01 dyn/cm
        Grid points                               230 per atom

          ...................................................
          :                      SETUP                      :
          :.................................................:
          :  # basis functions                 455          :
          :  # atomic orbitals                 455          :
          :  # shells                          275          :
          :  # electrons                       502          :
          :  max. iterations                   250          :
          :  Hamiltonian                  GFN2-xTB          :
          :  restarted?                      false          :
          :  GBSA solvation                   true          :
          :  PC potential                    false          :
          :  electronic temp.         1500.0000000     K    :
          :  accuracy                    1.0000000          :
          :  -> integral cutoff          0.2500000E+02      :
          :  -> integral neglect         0.1000000E-07      :
          :  -> SCF convergence          0.1000000E-05 Eh   :
          :  -> wf. convergence          0.1000000E-03 e    :
          :  Broyden damping             0.4000000          :
          :  net charge                         -2          :
          :  unpaired electrons                  0          :
          ...................................................

 iter      E             dE          RMSdq      gap      omega  full diag
   1   -285.3215526 -0.285322E+03  0.441E+00    1.70       0.0  T
   2   -285.9965777 -0.675025E+00  0.224E+00    0.87       1.0  T
   3   -286.0193103 -0.227326E-01  0.123E+00    1.60       1.0  T
   4   -286.0441083 -0.247980E-01  0.305E-01    0.96       1.0  T
   5   -286.0534155 -0.930722E-02  0.119E-01    1.20       1.0  T
   6   -286.0537743 -0.358765E-03  0.609E-02    1.12       1.0  T
   7   -286.0538882 -0.113945E-03  0.254E-02    1.14       1.0  T
   8   -286.0539168 -0.285703E-04  0.101E-02    1.15       1.0  T
   9   -286.0539209 -0.407856E-05  0.507E-03    1.14       1.5  T
  10   -286.0539217 -0.826007E-06  0.218E-03    1.14       3.4  T
  11   -286.0539219 -0.161698E-06  0.984E-04    1.14       7.5  T
  12   -286.0539219 -0.404434E-07  0.450E-04    1.14      16.3  T

   *** convergence criteria satisfied after 12 iterations ***

         #    Occupation            Energy/Eh            Energy/eV
      -------------------------------------------------------------
         1        2.0000           -0.7339402             -19.9715
       ...           ...                  ...                  ...
       245        1.9998           -0.3609694              -9.8225
       246        1.9997           -0.3584903              -9.7550
       247        1.9987           -0.3515873              -9.5672
       248        1.9939           -0.3440774              -9.3628
       249        1.9921           -0.3428482              -9.3294
       250        1.9835           -0.3393081              -9.2330
       251        1.9702           -0.3364610              -9.1556 (HOMO)
       252        0.0191           -0.2944986              -8.0137 (LUMO)
       253        0.0163           -0.2937559              -7.9935
       254        0.0159           -0.2936194              -7.9898
       255        0.0095           -0.2911823              -7.9235
       256        0.0013           -0.2815123              -7.6603
       ...           ...                  ...                  ...
       455                          0.6377944              17.3553
      -------------------------------------------------------------
                  HL-Gap            0.0419624 Eh            1.1419 eV
             Fermi-level           -0.3165540 Eh           -8.6139 eV

 SCC (total)                   0 d,  0 h,  0 min,  0.877 sec
 SCC setup                      ...        0 min,  0.009 sec (  1.007%)
 Dispersion                     ...        0 min,  0.012 sec (  1.424%)
 classical contributions        ...        0 min,  0.001 sec (  0.068%)
 integral evaluation            ...        0 min,  0.032 sec (  3.629%)
 iterations                     ...        0 min,  0.686 sec ( 78.172%)
 molecular gradient             ...        0 min,  0.127 sec ( 14.442%)
 printout                       ...        0 min,  0.011 sec (  1.253%)

         :::::::::::::::::::::::::::::::::::::::::::::::::::::
         ::                     SUMMARY                     ::
         :::::::::::::::::::::::::::::::::::::::::::::::::::::
         :: total energy            -282.625041286243 Eh    ::
         :: total w/o Gsasa/hb      -282.604017156782 Eh    ::
         :: gradient norm              0.269595840637 Eh/a0 ::
         :: HOMO-LUMO gap              1.141855453892 eV    ::
         ::.................................................::
         :: SCC energy              -286.045791059688 Eh    ::
         :: -> isotropic ES            1.079001725470 Eh    ::
         :: -> anisotropic ES          0.021969894182 Eh    ::
         :: -> anisotropic XC          0.109157365740 Eh    ::
         :: -> dispersion             -0.198417131169 Eh    ::
         :: -> Gsolv                  -0.364796045028 Eh    ::
         ::    -> Gelec               -0.343771915567 Eh    ::
         ::    -> Gsasa                0.013224571497 Eh    ::
         ::    -> Ghb                 -0.035329460656 Eh    ::
         ::    -> Gshift               0.001080759698 Eh    ::
         :: repulsion energy           3.420749773445 Eh    ::
         :: add. restraining           0.000000000000 Eh    ::
         :: total charge              -1.999999999999 e     ::
         :::::::::::::::::::::::::::::::::::::::::::::::::::::

           -------------------------------------------------
          |                Property Printout                |
           -------------------------------------------------

    * Orbital Energies and Occupations

         #    Occupation            Energy/Eh            Energy/eV
      -------------------------------------------------------------
         1        2.0000           -0.7339402             -19.9715
       ...           ...                  ...                  ...
       239        2.0000           -0.3898592             -10.6086
       240        2.0000           -0.3809137             -10.3652
       241        2.0000           -0.3804061             -10.3514
       242        2.0000           -0.3741269             -10.1805
       243        2.0000           -0.3681955             -10.0191
       244        1.9999           -0.3660914              -9.9619
       245        1.9998           -0.3609694              -9.8225
       246        1.9997           -0.3584903              -9.7550
       247        1.9987           -0.3515873              -9.5672
       248        1.9939           -0.3440774              -9.3628
       249        1.9921           -0.3428482              -9.3294
       250        1.9835           -0.3393081              -9.2330
       251        1.9702           -0.3364610              -9.1556 (HOMO)
       252        0.0191           -0.2944986              -8.0137 (LUMO)
       253        0.0163           -0.2937559              -7.9935
       254        0.0159           -0.2936194              -7.9898
       255        0.0095           -0.2911823              -7.9235
       256        0.0013           -0.2815123              -7.6603
       257                         -0.2313386              -6.2950
       258                         -0.2291035              -6.2342
       259                         -0.2253942              -6.1333
       260                         -0.2253190              -6.1312
       261                         -0.2204200              -5.9979
       262                         -0.2198122              -5.9814
       ...                                ...                  ...
       455                          0.6377944              17.3553
      -------------------------------------------------------------
                  HL-Gap            0.0419624 Eh            1.1419 eV
             Fermi-level           -0.3165540 Eh           -8.6139 eV

     #   Z          covCN         q      C6AA      α(0)
     1   7 N        2.633    -0.376    29.717     8.096
     2   1 H        0.860     0.155     1.367     1.832
     3   6 C        3.787     0.034    20.013     6.372
     4   1 H        0.925     0.066     2.125     2.280
     5   6 C        3.813    -0.069    21.802     6.646
     6   1 H        0.924     0.064     2.155     2.296
     7   1 H        0.924     0.041     2.430     2.438
     8   6 C        2.956     0.015    27.666     8.627
     9   6 C        2.926    -0.035    28.879     8.813
    10   1 H        0.925     0.051     2.309     2.376
    11   6 C        2.906    -0.043    29.062     8.839
    12   1 H        0.926     0.061     2.185     2.311
    13   6 C        2.917    -0.043    29.071     8.842
    14   1 H        0.925     0.038     2.479     2.462
    15   6 C        2.907    -0.038    28.939     8.821
    16   1 H        0.925     0.016     2.799     2.616
    17   6 C        2.920    -0.036    28.904     8.816
    18   1 H        0.925    -0.002     3.096     2.751
    19   6 C        2.756     0.271    22.413     7.752
    20   8 O        0.860    -0.536    24.590     6.649
    21   7 N        2.702    -0.161    24.478     7.348
    22   1 H        0.860     0.219     1.016     1.579
    23   6 C        3.799     0.047    19.784     6.333
    24   1 H        0.924     0.079     1.988     2.205
    25   6 C        3.830    -0.077    21.943     6.665
    26   1 H        0.925     0.053     2.284     2.363
    27   1 H        0.925     0.055     2.254     2.348
    28   6 C        2.690     0.355    20.973     7.495
    29   8 O        0.861    -0.656    27.543     7.036
    30   8 O        0.861    -0.667    27.819     7.072
    31   6 C        2.767     0.211    23.530     7.944
    32   8 O        0.857    -0.368    21.054     6.152
    33   7 N        2.634    -0.375    29.685     8.092
    34   1 H        0.860     0.179     1.220     1.731
    35   6 C        3.788     0.025    20.161     6.395
    36   1 H        0.925     0.068     2.103     2.268
    37   6 C        3.805    -0.058    21.609     6.618
    38   1 H        0.924     0.063     2.165     2.301
    39   1 H        0.924     0.042     2.416     2.431
    40   6 C        3.803    -0.093    22.275     6.719
    41   1 H        0.924     0.066     2.133     2.284
    42   1 H        0.924     0.078     1.999     2.211
    43   6 C        2.742     0.283    22.207     7.716
    44   8 O        0.869    -0.535    24.561     6.645
    45   7 N        2.645    -0.311    28.009     7.860
    46   1 H        0.860     0.233     0.952     1.529
    47   1 H        0.860     0.260     0.847     1.442
    48   6 C        2.752     0.268    22.479     7.764
    49   8 O        0.861    -0.523    24.290     6.608
    50   7 N        2.703    -0.173    24.737     7.387
    51   1 H        0.860     0.214     1.038     1.596
    52   6 C        3.799     0.026    20.141     6.390
    53   1 H        0.924     0.086     1.915     2.164
    54   6 C        3.821    -0.047    21.398     6.583
    55   1 H        0.924     0.042     2.420     2.433
    56   1 H        0.924     0.049     2.333     2.389
    57   6 C        3.803    -0.093    22.271     6.719
    58   1 H        0.925     0.046     2.371     2.408
    59   1 H        0.924     0.031     2.576     2.510
    60   6 C        2.688     0.361    20.871     7.476
    61   8 O        0.857    -0.677    28.102     7.107
    62   8 O        0.857    -0.658    27.587     7.042
    63   6 C        2.750     0.277    22.320     7.736
    64   8 O        0.858    -0.518    24.184     6.593
    65   7 N        2.689    -0.150    24.255     7.315
    66   1 H        0.860     0.205     1.079     1.627
    67   6 C        3.791     0.024    20.185     6.398
    68   1 H        0.925     0.078     2.000     2.212
    69   6 C        3.855    -0.022    20.923     6.506
    70   1 H        0.926     0.057     2.236     2.338
    71   6 C        3.764    -0.131    23.058     6.844
    72   1 H        0.925     0.077     2.011     2.218
    73   1 H        0.924     0.043     2.407     2.426
    74   1 H        0.925     0.053     2.278     2.360
    75   6 C        3.762    -0.115    22.755     6.800
    76   1 H        0.924     0.038     2.477     2.461
    77   1 H        0.925     0.031     2.566     2.505
    78   1 H        0.924     0.062     2.172     2.305
    79   6 C        2.758     0.275    22.343     7.741
    80   8 O        0.860    -0.518    24.182     6.593
    81   7 N        2.687    -0.164    24.538     7.357
    82   1 H        0.860     0.216     1.026     1.587
    83   6 C        3.799     0.031    20.046     6.375
    84   1 H        0.924     0.089     1.890     2.150
    85   6 C        3.860    -0.019    20.874     6.498
    86   1 H        0.925     0.062     2.180     2.309
    87   6 C        3.753    -0.124    22.947     6.831
    88   1 H        0.925     0.051     2.304     2.374
    89   1 H        0.924     0.064     2.150     2.293
    90   1 H        0.924     0.058     2.219     2.330
    91   6 C        3.805    -0.061    21.669     6.627
    92   1 H        0.925     0.040     2.452     2.449
    93   1 H        0.925     0.034     2.534     2.489
    94   6 C        3.752    -0.122    22.890     6.823
    95   1 H        0.925     0.058     2.219     2.330
    96   1 H        0.925     0.043     2.412     2.429
    97   1 H        0.924     0.050     2.318     2.381
    98   6 C        2.759     0.200    23.733     7.978
    99   8 O        0.856    -0.391    21.495     6.216
   100   7 N        2.637    -0.369    29.534     8.071
   101   1 H        0.860     0.160     1.336     1.811
   102   6 C        3.785     0.046    19.817     6.341
   103   1 H        0.924     0.084     1.941     2.179
   104   6 C        3.814    -0.072    21.858     6.654
   105   1 H        0.924     0.058     2.220     2.330
   106   1 H        0.925     0.068     2.104     2.268
   107   6 C        2.955     0.007    27.856     8.657
   108   6 C        2.924    -0.044    29.101     8.847
   109   1 H        0.926     0.046     2.372     2.409
   110   6 C        2.901    -0.079    29.974     8.977
   111   1 H        0.925     0.045     2.380     2.413
   112   6 C        2.843     0.142    24.911     8.180
   113   8 O        1.659    -0.465    22.144     6.353
   114   1 H        0.805     0.361     0.563     1.179
   115   6 C        2.904    -0.062    29.544     8.912
   116   1 H        0.926     0.050     2.325     2.384
   117   6 C        2.920    -0.040    28.982     8.828
   118   1 H        0.925     0.049     2.335     2.390
   119   6 C        2.757     0.200    23.733     7.978
   120   8 O        0.857    -0.401    21.696     6.245
   121   7 N        2.634    -0.355    29.141     8.017
   122   1 H        0.860     0.168     1.285     1.776
   123   6 C        3.784     0.045    19.835     6.344
   124   1 H        0.925     0.059     2.216     2.328
   125   6 C        3.807    -0.067    21.776     6.643
   126   1 H        0.924     0.044     2.392     2.419
   127   1 H        0.924     0.049     2.329     2.387
   128   6 C        3.040     0.055    26.723     8.479
   129   7 N        1.950    -0.322    29.169     8.009
   130   6 C        2.992     0.078    26.252     8.405
   131   1 H        0.926     0.050     2.314     2.379
   132   7 N        2.793    -0.097    23.131     7.143
   133   1 H        0.860     0.193     1.145     1.676
   134   6 C        3.021    -0.026    28.617     8.775
   135   1 H        0.926     0.037     2.491     2.468
   136   6 C        2.758     0.208    23.590     7.954
   137   8 O        0.856    -0.356    20.819     6.117
   138   7 N        2.632    -0.381    29.854     8.115
   139   1 H        0.860     0.181     1.208     1.722
   140   6 C        3.791     0.024    20.180     6.398
   141   1 H        0.924     0.051     2.308     2.376
   142   6 C        3.858    -0.028    21.039     6.523
   143   1 H        0.924     0.051     2.310     2.377
   144   6 C        3.763    -0.109    22.630     6.781
   145   1 H        0.925     0.037     2.490     2.468
   146   1 H        0.925     0.050     2.317     2.381
   147   1 H        0.924     0.030     2.588     2.516
   148   6 C        3.810    -0.054    21.530     6.605
   149   1 H        0.925     0.031     2.572     2.508
   150   1 H        0.925     0.021     2.719     2.578
   151   6 C        3.752    -0.103    22.527     6.768
   152   1 H        0.923     0.040     2.443     2.444
   153   1 H        0.924     0.035     2.512     2.479
   154   1 H        0.925     0.020     2.740     2.589
   155   6 C        2.749     0.274    22.374     7.745
   156   8 O        0.860    -0.514    24.100     6.582
   157   7 N        2.695    -0.178    24.864     7.406
   158   1 H        0.860     0.230     0.963     1.538
   159   6 C        3.797     0.027    20.122     6.387
   160   1 H        0.926     0.077     2.013     2.219
   161   6 C        3.856    -0.021    20.918     6.505
   162   1 H        0.925     0.046     2.369     2.407
   163   6 C        3.757    -0.124    22.933     6.828
   164   1 H        0.925     0.058     2.221     2.330
   165   1 H        0.924     0.059     2.213     2.327
   166   1 H        0.924     0.035     2.516     2.481
   167   6 C        3.804    -0.052    21.502     6.601
   168   1 H        0.925     0.020     2.736     2.586
   169   1 H        0.924     0.029     2.594     2.519
   170   6 C        3.749    -0.103    22.537     6.771
   171   1 H        0.924     0.035     2.517     2.481
   172   1 H        0.924     0.045     2.388     2.417
   173   1 H        0.923     0.049     2.328     2.386
   174   6 C        2.764     0.206    23.625     7.960
   175   8 O        0.856    -0.363    20.961     6.138
   176   1 H        0.860     0.195     1.134     1.668
   177   1 H        0.923     0.072     2.064     2.247
   178   1 H        0.860     0.155     1.366     1.831
   179   1 H        0.923     0.074     2.038     2.233
   180   1 H        0.860     0.170     1.275     1.769
   181   1 H        0.923     0.064     2.155     2.296
   182   1 H        0.860     0.171     1.269     1.764
   183   1 H        0.923     0.073     2.052     2.240
   184   1 H        0.860     0.186     1.179     1.701
   185   1 H        0.923     0.074     2.040     2.234

 Mol. C6AA /au·bohr⁶  :     329710.361333
 Mol. C8AA /au·bohr⁸  :    7377981.154834
 Mol. α(0) /au        :        866.737208


Wiberg/Mayer (AO) data.
largest (>0.10) Wiberg bond orders for each atom

 ---------------------------------------------------------------------------
     #   Z sym  total        # sym  WBO       # sym  WBO       # sym  WBO
 ---------------------------------------------------------------------------
     1   7 N    3.003 --     3 C    1.026     2 H    0.949   176 H    0.946
     2   1 H    0.976 --     1 N    0.949
     3   6 C    3.983 --     1 N    1.026     5 C    0.955    19 C    0.947
                             4 H    0.940
     4   1 H    0.994 --     3 C    0.940
     5   6 C    3.988 --     8 C    1.011     6 H    0.969     7 H    0.963
                             3 C    0.955
     6   1 H    0.995 --     5 C    0.969
     7   1 H    0.998 --     5 C    0.963
     8   6 C    3.987 --     9 C    1.426    17 C    1.394     5 C    1.011
                            13 C    0.107
     9   6 C    3.989 --     8 C    1.426    11 C    1.424    10 H    0.968
                            15 C    0.111
    10   1 H    0.997 --     9 C    0.968
    11   6 C    3.987 --    13 C    1.453     9 C    1.424    12 H    0.969
                            17 C    0.112
    12   1 H    0.996 --    11 C    0.969
    13   6 C    3.989 --    11 C    1.453    15 C    1.421    14 H    0.971
                             8 C    0.107
    14   1 H    0.998 --    13 C    0.971
    15   6 C    3.991 --    17 C    1.458    13 C    1.421    16 H    0.973
                             9 C    0.111
    16   1 H    0.999 --    15 C    0.973
    17   6 C    3.991 --    15 C    1.458     8 C    1.394    18 H    0.967
                            11 C    0.112
    18   1 H    1.000 --    17 C    0.967
    19   6 C    3.935 --    20 O    1.605    21 N    1.303     3 C    0.947
    20   8 O    1.909 --    19 C    1.605    21 N    0.186
    21   7 N    3.467 --    19 C    1.303    23 C    0.982    22 H    0.906
                            20 O    0.186
    22   1 H    0.952 --    21 N    0.906
    23   6 C    3.971 --    31 C    0.990    21 N    0.982    24 H    0.956
                            25 C    0.945
    24   1 H    0.994 --    23 C    0.956
    25   6 C    3.987 --    26 H    0.966    27 H    0.952    28 C    0.945
                            23 C    0.945
    26   1 H    0.997 --    25 C    0.966
    27   1 H    0.997 --    25 C    0.952
    28   6 C    3.935 --    29 O    1.486    30 O    1.479    25 C    0.945
    29   8 O    1.772 --    28 C    1.486    30 O    0.210
    30   8 O    1.758 --    28 C    1.479    29 O    0.210
    31   6 C    3.874 --    32 O    1.877    23 C    0.990   177 H    0.938
    32   8 O    2.035 --    31 C    1.877
    33   7 N    3.012 --    35 C    1.016   178 H    0.961    34 H    0.956
    34   1 H    0.968 --    33 N    0.956
    35   6 C    3.980 --    33 N    1.016    37 C    0.977    48 C    0.954
                            36 H    0.935
    36   1 H    0.995 --    35 C    0.935
    37   6 C    3.993 --    40 C    1.007    35 C    0.977    39 H    0.975
                            38 H    0.973
    38   1 H    0.996 --    37 C    0.973
    39   1 H    0.998 --    37 C    0.975
    40   6 C    3.995 --    37 C    1.007    43 C    0.980    41 H    0.964
                            42 H    0.945
    41   1 H    0.996 --    40 C    0.964
    42   1 H    0.994 --    40 C    0.945
    43   6 C    3.940 --    44 O    1.619    45 N    1.305    40 C    0.980
    44   8 O    1.906 --    43 C    1.619    45 N    0.185
    45   7 N    3.361 --    43 C    1.305    46 H    0.926    47 H    0.909
                            44 O    0.185
    46   1 H    0.946 --    45 N    0.926
    47   1 H    0.932 --    45 N    0.909
    48   6 C    3.940 --    49 O    1.617    50 N    1.282    35 C    0.954
    49   8 O    1.921 --    48 C    1.617    50 N    0.184
    50   7 N    3.466 --    48 C    1.282    52 C    0.986    51 H    0.916
                            49 O    0.184
    51   1 H    0.954 --    50 N    0.916
    52   6 C    3.964 --    50 N    0.986    54 C    0.968    53 H    0.945
                            63 C    0.944
    53   1 H    0.992 --    52 C    0.945
    54   6 C    3.990 --    57 C    1.008    56 H    0.974    55 H    0.973
                            52 C    0.968
    55   1 H    0.998 --    54 C    0.973
    56   1 H    0.998 --    54 C    0.974
    57   6 C    3.990 --    54 C    1.008    59 H    0.972    58 H    0.956
                            60 C    0.938
    58   1 H    0.998 --    57 C    0.956
    59   1 H    0.999 --    57 C    0.972
    60   6 C    3.931 --    62 O    1.497    61 O    1.470    57 C    0.938
    61   8 O    1.751 --    60 C    1.470    62 O    0.211
    62   8 O    1.779 --    60 C    1.497    61 O    0.211
    63   6 C    3.950 --    64 O    1.616    65 N    1.313    52 C    0.944
    64   8 O    1.924 --    63 C    1.616    65 N    0.196
    65   7 N    3.483 --    63 C    1.313    67 C    0.983    66 H    0.911
                            64 O    0.196
    66   1 H    0.958 --    65 N    0.911
    67   6 C    3.962 --    65 N    0.983    69 C    0.957    79 C    0.946
                            68 H    0.946
    68   1 H    0.994 --    67 C    0.946
    69   6 C    3.987 --    75 C    1.005    71 C    1.002    70 H    0.965
                            67 C    0.957
    70   1 H    0.996 --    69 C    0.965
    71   6 C    3.988 --    69 C    1.002    73 H    0.984    74 H    0.984
                            72 H    0.983
    72   1 H    0.993 --    71 C    0.983
    73   1 H    0.998 --    71 C    0.984
    74   1 H    0.997 --    71 C    0.984
    75   6 C    3.994 --    69 C    1.005    77 H    0.986    76 H    0.985
                            78 H    0.984
    76   1 H    0.999 --    75 C    0.985
    77   1 H    0.999 --    75 C    0.986
    78   1 H    0.996 --    75 C    0.984
    79   6 C    3.947 --    80 O    1.626    81 N    1.291    67 C    0.946
    80   8 O    1.928 --    79 C    1.626    81 N    0.184
    81   7 N    3.447 --    79 C    1.291    83 C    0.980    82 H    0.905
                            80 O    0.184
    82   1 H    0.953 --    81 N    0.905
    83   6 C    3.963 --    98 C    0.987    81 N    0.980    85 C    0.943
                            84 H    0.941
    84   1 H    0.992 --    83 C    0.941
    85   6 C    3.980 --    87 C    1.002    91 C    0.994    86 H    0.961
                            83 C    0.943
    86   1 H    0.995 --    85 C    0.961
    87   6 C    3.989 --    85 C    1.002    88 H    0.984    90 H    0.984
                            89 H    0.976
    88   1 H    0.997 --    87 C    0.984
    89   1 H    0.994 --    87 C    0.976
    90   1 H    0.997 --    87 C    0.984
    91   6 C    3.995 --    94 C    1.017    85 C    0.994    92 H    0.975
                            93 H    0.965
    92   1 H    0.998 --    91 C    0.975
    93   1 H    0.999 --    91 C    0.965
    94   6 C    3.989 --    91 C    1.017    97 H    0.986    96 H    0.984
                            95 H    0.980
    95   1 H    0.997 --    94 C    0.980
    96   1 H    0.998 --    94 C    0.984
    97   1 H    0.997 --    94 C    0.986
    98   6 C    3.878 --    99 O    1.872    83 C    0.987   179 H    0.938
    99   8 O    2.022 --    98 C    1.872
   100   7 N    3.014 --   102 C    1.031   101 H    0.959   180 H    0.956
   101   1 H    0.974 --   100 N    0.959
   102   6 C    3.983 --   100 N    1.031   119 C    0.985   104 C    0.945
                           103 H    0.929
   103   1 H    0.993 --   102 C    0.929
   104   6 C    3.989 --   107 C    1.006   106 H    0.967   105 H    0.963
                           102 C    0.945
   105   1 H    0.996 --   104 C    0.963
   106   1 H    0.995 --   104 C    0.967
   107   6 C    3.987 --   108 C    1.413   117 C    1.403   104 C    1.006
   108   6 C    3.990 --   110 C    1.443   107 C    1.413   109 H    0.969
                           115 C    0.107
   109   1 H    0.998 --   108 C    0.969
   110   6 C    3.984 --   108 C    1.443   112 C    1.366   111 H    0.962
                           117 C    0.106
   111   1 H    0.998 --   110 C    0.962
   112   6 C    3.929 --   115 C    1.369   110 C    1.366   113 O    1.061
   113   8 O    2.060 --   112 C    1.061   114 H    0.848
   114   1 H    0.870 --   113 O    0.848
   115   6 C    3.986 --   117 C    1.450   112 C    1.369   116 H    0.969
                           108 C    0.107
   116   1 H    0.997 --   115 C    0.969
   117   6 C    3.985 --   115 C    1.450   107 C    1.403   118 H    0.964
                           110 C    0.106
   118   1 H    0.998 --   117 C    0.964
   119   6 C    3.875 --   120 O    1.873   102 C    0.985   181 H    0.936
   120   8 O    2.024 --   119 C    1.873
   121   7 N    3.028 --   123 C    1.007   182 H    0.954   122 H    0.938
   122   1 H    0.972 --   121 N    0.938
   123   6 C    3.984 --   121 N    1.007   136 C    0.981   124 H    0.963
                           125 C    0.949
   124   1 H    0.996 --   123 C    0.963
   125   6 C    3.987 --   128 C    1.016   127 H    0.965   126 H    0.961
                           123 C    0.949
   126   1 H    0.998 --   125 C    0.961
   127   1 H    0.997 --   125 C    0.965
   128   6 C    3.974 --   134 C    1.556   129 N    1.271   125 C    1.016
   129   7 N    2.991 --   130 C    1.524   128 C    1.271   132 N    0.105
   130   6 C    3.955 --   129 N    1.524   132 N    1.290   131 H    0.964
                           134 C    0.120
   131   1 H    0.997 --   130 C    0.964
   132   7 N    3.597 --   130 C    1.290   134 C    1.205   133 H    0.918
                           129 N    0.105
   133   1 H    0.963 --   132 N    0.918
   134   6 C    3.934 --   128 C    1.556   132 N    1.205   135 H    0.968
                           130 C    0.120
   135   1 H    0.999 --   134 C    0.968
   136   6 C    3.861 --   137 O    1.862   123 C    0.981   183 H    0.937
   137   8 O    2.087 --   136 C    1.862
   138   7 N    3.008 --   140 C    1.028   184 H    0.950   139 H    0.930
   139   1 H    0.967 --   138 N    0.930
   140   6 C    3.983 --   138 N    1.028   141 H    0.958   142 C    0.953
                           155 C    0.938
   141   1 H    0.996 --   140 C    0.958
   142   6 C    3.988 --   144 C    1.008   148 C    0.995   143 H    0.964
                           140 C    0.953
   143   1 H    0.996 --   142 C    0.964
   144   6 C    3.995 --   142 C    1.008   145 H    0.984   146 H    0.980
                           147 H    0.979
   145   1 H    0.998 --   144 C    0.984
   146   1 H    0.997 --   144 C    0.980
   147   1 H    0.999 --   144 C    0.979
   148   6 C    3.994 --   151 C    1.017   142 C    0.995   150 H    0.977
                           149 H    0.975
   149   1 H    0.999 --   148 C    0.975
   150   1 H    1.000 --   148 C    0.977
   151   6 C    3.992 --   148 C    1.017   152 H    0.987   154 H    0.986
                           153 H    0.985
   152   1 H    0.998 --   151 C    0.987
   153   1 H    0.999 --   151 C    0.985
   154   1 H    0.999 --   151 C    0.986
   155   6 C    3.938 --   156 O    1.626   157 N    1.294   140 C    0.938
   156   8 O    1.936 --   155 C    1.626   157 N    0.192
   157   7 N    3.470 --   155 C    1.294   159 C    0.966   158 H    0.881
                           156 O    0.192
   158   1 H    0.947 --   157 N    0.881
   159   6 C    3.963 --   174 C    0.970   157 N    0.966   161 C    0.962
                           160 H    0.956
   160   1 H    0.994 --   159 C    0.956
   161   6 C    3.989 --   163 C    1.002   167 C    0.995   162 H    0.964
                           159 C    0.962
   162   1 H    0.998 --   161 C    0.964
   163   6 C    3.991 --   161 C    1.002   164 H    0.985   166 H    0.982
                           165 H    0.981
   164   1 H    0.997 --   163 C    0.985
   165   1 H    0.996 --   163 C    0.981
   166   1 H    0.999 --   163 C    0.982
   167   6 C    3.995 --   170 C    1.017   161 C    0.995   169 H    0.975
                           168 H    0.972
   168   1 H    1.000 --   167 C    0.972
   169   1 H    0.999 --   167 C    0.975
   170   6 C    3.993 --   167 C    1.017   171 H    0.986   173 H    0.985
                           172 H    0.983
   171   1 H    0.998 --   170 C    0.986
   172   1 H    0.998 --   170 C    0.983
   173   1 H    0.997 --   170 C    0.985
   174   6 C    3.866 --   175 O    1.877   159 C    0.970   185 H    0.937
   175   8 O    2.058 --   174 C    1.877
   176   1 H    0.962 --     1 N    0.946
   177   1 H    0.994 --    31 C    0.938
   178   1 H    0.976 --    33 N    0.961
   179   1 H    0.994 --    98 C    0.938
   180   1 H    0.971 --   100 N    0.956
   181   1 H    0.995 --   119 C    0.936
   182   1 H    0.971 --   121 N    0.954
   183   1 H    0.994 --   136 C    0.937
   184   1 H    0.965 --   138 N    0.950
   185   1 H    0.994 --   174 C    0.937
 ---------------------------------------------------------------------------

Topologies differ in total number of bonds
Writing topology from bond orders to xtbtopo.mol

molecular dipole:
                 x           y           z       tot (Debye)
 q only:      -75.161     -30.984    -220.332
   full:      -74.957     -30.197    -219.908     595.495
molecular quadrupole (traceless):
                xx          xy          yy          xz          yz          zz
 q only:     9429.483   -1933.216   13246.743  -12786.089   -5322.475  -22676.226
  q+dip:     9393.854   -1868.454   13209.902  -12718.015   -5187.876  -22603.757
   full:     9394.633   -1868.832   13212.087  -12717.929   -5185.825  -22606.720


           -------------------------------------------------
          | TOTAL ENERGY             -282.625041286243 Eh   |
          | GRADIENT NORM               0.269595840637 Eh/α |
          | HOMO-LUMO GAP               1.141855453892 eV   |
           -------------------------------------------------

------------------------------------------------------------------------
 * finished run on 2026/01/05 at 09:07:22.761     
------------------------------------------------------------------------
Note: The following floating-point exceptions are signalling: IEEE_UNDERFLOW_FLAG IEEE_DENORMAL
normal termination of xtb
 total:
 * wall-time:     0 d,  0 h,  0 min,  0.929 sec
 *  cpu-time:     0 d,  0 h,  0 min, 13.693 sec
 * ratio c/w:    14.745 speedup
 SCF:
 * wall-time:     0 d,  0 h,  0 min,  0.879 sec
 *  cpu-time:     0 d,  0 h,  0 min, 12.942 sec
 * ratio c/w:    14.719 speedup

