      -----------------------------------------------------------      
     |                   =====================                   |     
     |                           x T B                           |     
     |                   =====================                   |     
     |                         S. Grimme                         |     
     |          Mulliken Center for Theoretical Chemistry        |     
     |                    University of Bonn                     |     
      -----------------------------------------------------------      

   * xtb version 6.7.1 (edcfbbe) compiled by 'conda@c0858423619e' on 2025-09-04

   xtb is free software: you can redistribute it and/or modify it under
   the terms of the GNU Lesser General Public License as published by
   the Free Software Foundation, either version 3 of the License, or
   (at your option) any later version.
   
   xtb is distributed in the hope that it will be useful,
   but WITHOUT ANY WARRANTY; without even the implied warranty of
   MERCHANTABILITY or FITNESS FOR A PARTICULAR PURPOSE.  See the
   GNU Lesser General Public License for more details.
   
   Cite this work as:
   * C. Bannwarth, E. Caldeweyher, S. Ehlert, A. Hansen, P. Pracht,
     J. Seibert, S. Spicher, S. Grimme, WIREs Comput. Mol. Sci., 2020, 11,
     e01493. DOI: 10.1002/wcms.1493
   
   for GFN2-xTB:
   * C. Bannwarth, S. Ehlert and S. Grimme., J. Chem. Theory Comput., 2019,
     15, 1652-1671. DOI: 10.1021/acs.jctc.8b01176
   for GFN1-xTB:
   * S. Grimme, C. Bannwarth, P. Shushkov, J. Chem. Theory Comput., 2017,
     13, 1989-2009. DOI: 10.1021/acs.jctc.7b00118
   for GFN0-xTB:
   * P. Pracht, E. Caldeweyher, S. Ehlert, S. Grimme, ChemRxiv, 2019, preprint.
     DOI: 10.26434/chemrxiv.8326202.v1
   for GFN-FF:
   * S. Spicher and S. Grimme, Angew. Chem. Int. Ed., 2020, 59, 15665-15673.
     DOI: 10.1002/anie.202004239
   
   for ALPB and GBSA implicit solvation:
   * S. Ehlert, M. Stahn, S. Spicher, S. Grimme, J. Chem. Theory Comput.,
     2021, 17, 4250-4261. DOI: 10.1021/acs.jctc.1c00471
   
   for ddCOSMO and CPCM-X implicit solvation:
   * M. Stahn, S. Ehlert, S. Grimme, J. Phys. Chem. A,
     2023, XX, XXXX-XXXX. DOI: 10.1021/acs.jpca.3c04382
   
   for DFT-D4:
   * E. Caldeweyher, C. Bannwarth and S. Grimme, J. Chem. Phys., 2017,
     147, 034112. DOI: 10.1063/1.4993215
   * E. Caldeweyher, S. Ehlert, A. Hansen, H. Neugebauer, S. Spicher,
     C. Bannwarth and S. Grimme, J. Chem. Phys., 2019, 150, 154122.
     DOI: 10.1063/1.5090222
   * E. Caldeweyher, J.-M. Mewes, S. Ehlert and S. Grimme, Phys. Chem. Chem. Phys.
     2020, 22, 8499-8512. DOI: 10.1039/D0CP00502A
   
   for sTDA-xTB:
   * S. Grimme and C. Bannwarth, J. Chem. Phys., 2016, 145, 054103.
     DOI: 10.1063/1.4959605
   
   in the mass-spec context:
   * V. Asgeirsson, C. Bauer and S. Grimme, Chem. Sci., 2017, 8, 4879.
     DOI: 10.1039/c7sc00601b
   * J. Koopman and S. Grimme, ACS Omega 2019, 4, 12, 15120-15133.
     DOI: 10.1021/acsomega.9b02011
   
   for metadynamics refer to:
   * S. Grimme, J. Chem. Theory Comput., 2019, 155, 2847-2862
     DOI: 10.1021/acs.jctc.9b00143
   
   for SPH calculations refer to:
   * S. Spicher and S. Grimme, J. Chem. Theory Comput., 2021, 17, 1701-1714
     DOI: 10.1021/acs.jctc.0c01306
   
   for ONIOM refer to:
   * C. Plett, A. Katbashev, S. Ehlert, S. Grimme, M. Bursch,
     Phys. Chem. Chem. Phys., 2023, 25, 17860-17868. DOI: 10.1039/D3CP02178E
   
   for DIPRO refer to:
   * J. Kohn, N. Gildemeister, S. Grimme, D. Fazzi, A. Hansen,
     J. Chem. Phys., 2023, just accepted.
   
   for PTB refer to:
   * S. Grimme, M. Mueller, A. Hansen, J. Chem. Phys., 2023, 158, 124111.
     DOI: 10.1063/5.0137838
   
   with help from (in alphabetical order)
   P. Atkinson, C. Bannwarth, F. Bohle, G. Brandenburg, E. Caldeweyher
   M. Checinski, S. Dohm, S. Ehlert, S. Ehrlich, I. Gerasimov, C. Hölzer
   A. Katbashev, J. Kohn, J. Koopman, C. Lavigne, S. Lehtola, F. März, M. Müller,
   F. Musil, H. Neugebauer, J. Pisarek, C. Plett, P. Pracht, F. Pultar,
   J. Seibert, P. Shushkov, S. Spicher, M. Stahn, M. Steiner, T. Strunk,
   J. Stückrath, T. Rose, and J. Unsleber
   
 * started run on 2026/01/05 at 09:06:36.767     
   ID    Z sym.   atoms
    1    7 N      1, 13, 18, 33, 49, 68, 81, 84, 87, 92, 102, 123, 131, 134,
                  140
    2    1 H      2, 4, 6, 7, 9, 10, 14, 15, 19, 21, 23, 24, 26, 27, 34, 36,
                  38, 40-42, 44-46, 50, 52, 54, 56-58, 60, 61, 63-65, 69, 71,
                  73, 74, 76, 77, 79, 80, 82, 85, 86, 88, 89, 93, 95, 97-99,
                  103, 105, 107, 108, 111, 113, 116, 118, 120, 124, 126, 128,
                  129, 133, 135, 137, 141, 143, 145, 147-149, 151, 152,
                  154-156, 159-166
    3    6 C      3, 5, 8, 11, 16, 20, 22, 25, 28, 31, 35, 37, 39, 43, 47,
                  51, 53, 55, 59, 62, 66, 70, 72, 75, 78, 83, 90, 94, 96,
                  100, 104, 106, 109, 110, 112, 114, 117, 119, 121, 125, 127,
                  130, 132, 136, 138, 142, 144, 146, 150, 153, 157
    4    8 O      12, 17, 29, 30, 32, 48, 67, 91, 101, 115, 122, 139, 158

           -------------------------------------------------
          |                Calculation Setup                |
           -------------------------------------------------

          program call               : xtb /home/antonio_mesquita/Documentos/gmx_ISA_project/testes_arquivos_primeiros/gmx_ISA_testes/testes_qm_xtb/QM_analysis/QM_FRAMES_CAPPED/frame_1800ps/residues_pocket_capped_1800ps.xyz --gfn 2 --alpb water --chrg 0 --etemp 1500 --cycles 1000
          coordinate file            : /home/antonio_mesquita/Documentos/gmx_ISA_project/testes_arquivos_primeiros/gmx_ISA_testes/testes_qm_xtb/QM_analysis/QM_FRAMES_CAPPED/frame_1800ps/residues_pocket_capped_1800ps.xyz
          omp threads                :                    16


molecular fragmentation (1/2 indicates fragments):
111111111111111111111111111111111111111111111111111111111111111111111111
111111111111111111122222222222222222222222222222222222222222222222222222
2222222222222211222222
# atoms in fragment 1/2:    93    73
 fragment masses (1/2) :      627.73      490.60
CMA distance (Bohr)    :  24.550
constraining FC (au)   :  0.0500

           -------------------------------------------------
          |                 G F N 2 - x T B                 |
           -------------------------------------------------

        Reference                      10.1021/acs.jctc.8b01176
      * Hamiltonian:
        H0-scaling (s, p, d)           1.850000    2.230000    2.230000
        zeta-weighting                 0.500000
      * Dispersion:
        s8                             2.700000
        a1                             0.520000
        a2                             5.000000
        s9                             5.000000
      * Repulsion:
        kExp                           1.500000    1.000000
        rExp                           1.000000
      * Coulomb:
        alpha                          2.000000
        third order                    shell-resolved
        anisotropic                    true
        a3                             3.000000
        a5                             4.000000
        cn-shift                       1.200000
        cn-exp                         4.000000
        max-rad                        5.000000

      * Solvation model:               ALPB
        Solvent                        water
        Parameter file                 internal GFN2-xTB/ALPB
        Dielectric constant                8.0200E+01
        Reference state                gsolv [1 M gas/solution]
        Free energy shift                  1.0808E-03 Eh       6.7819E-01 kcal/mol
        Temperature                        2.9815E+02 K
        Density                            1.0000E+00 kg/L
        Solvent mass                       1.8000E+01 g/mol
        Interaction kernel             P16
        Born radius scaling (c1)           1.4744E+00
        Born radii integrator          GBOBC
        Born offset                        0.0000E+00 a0       0.0000E+00 AA
        H-bond correction              true
        Ion screening                  false
        Surface tension                    1.0000E-05 Eh       1.5569E+01 dyn/cm
        Grid points                               230 per atom

          ...................................................
          :                      SETUP                      :
          :.................................................:
          :  # basis functions                 403          :
          :  # atomic orbitals                 403          :
          :  # shells                          245          :
          :  # electrons                       444          :
          :  max. iterations                   250          :
          :  Hamiltonian                  GFN2-xTB          :
          :  restarted?                      false          :
          :  GBSA solvation                   true          :
          :  PC potential                    false          :
          :  electronic temp.         1500.0000000     K    :
          :  accuracy                    1.0000000          :
          :  -> integral cutoff          0.2500000E+02      :
          :  -> integral neglect         0.1000000E-07      :
          :  -> SCF convergence          0.1000000E-05 Eh   :
          :  -> wf. convergence          0.1000000E-03 e    :
          :  Broyden damping             0.4000000          :
          :  net charge                          0          :
          :  unpaired electrons                  0          :
          ...................................................

 iter      E             dE          RMSdq      gap      omega  full diag
   1   -252.6086964 -0.252609E+03  0.425E+00    1.75       0.0  T
   2   -253.1941750 -0.585479E+00  0.215E+00    1.23       1.0  T
   3   -253.2155130 -0.213380E-01  0.115E+00    1.78       1.0  T
   4   -253.2303121 -0.147991E-01  0.308E-01    1.41       1.0  T
   5   -253.2379971 -0.768498E-02  0.118E-01    1.52       1.0  T
   6   -253.2382447 -0.247614E-03  0.644E-02    1.52       1.0  T
   7   -253.2383899 -0.145197E-03  0.255E-02    1.51       1.0  T
   8   -253.2384111 -0.211931E-04  0.975E-03    1.51       1.0  T
   9   -253.2384137 -0.264841E-05  0.428E-03    1.51       1.8  T
  10   -253.2384142 -0.460564E-06  0.193E-03    1.51       4.0  T
  11   -253.2384143 -0.779943E-07  0.909E-04    1.51       8.5  T
  12   -253.2384143 -0.471297E-07  0.359E-04    1.51      21.6  T

   *** convergence criteria satisfied after 12 iterations ***

         #    Occupation            Energy/Eh            Energy/eV
      -------------------------------------------------------------
         1        2.0000           -0.7288009             -19.8317
       ...           ...                  ...                  ...
       216        2.0000           -0.3735402             -10.1645
       217        2.0000           -0.3716750             -10.1138
       218        1.9999           -0.3616332              -9.8405
       219        1.9995           -0.3553939              -9.6708
       220        1.9966           -0.3459061              -9.4126
       221        1.9954           -0.3444827              -9.3739
       222        1.9936           -0.3429143              -9.3312 (HOMO)
       223        0.0052           -0.2873956              -7.8204 (LUMO)
       224        0.0042           -0.2864152              -7.7938
       225        0.0034           -0.2853759              -7.7655
       226        0.0022           -0.2832198              -7.7068
       227                         -0.2312771              -6.2934
       ...                                ...                  ...
       403                          0.6239890              16.9796
      -------------------------------------------------------------
                  HL-Gap            0.0555187 Eh            1.5107 eV
             Fermi-level           -0.3156424 Eh           -8.5891 eV

 SCC (total)                   0 d,  0 h,  0 min,  0.736 sec
 SCC setup                      ...        0 min,  0.009 sec (  1.208%)
 Dispersion                     ...        0 min,  0.013 sec (  1.760%)
 classical contributions        ...        0 min,  0.002 sec (  0.282%)
 integral evaluation            ...        0 min,  0.044 sec (  6.004%)
 iterations                     ...        0 min,  0.537 sec ( 72.918%)
 molecular gradient             ...        0 min,  0.130 sec ( 17.618%)
 printout                       ...        0 min,  0.002 sec (  0.205%)

         :::::::::::::::::::::::::::::::::::::::::::::::::::::
         ::                     SUMMARY                     ::
         :::::::::::::::::::::::::::::::::::::::::::::::::::::
         :: total energy            -250.211698124684 Eh    ::
         :: total w/o Gsasa/hb      -250.176311125038 Eh    ::
         :: gradient norm              0.244862563842 Eh/a0 ::
         :: HOMO-LUMO gap              1.510739943096 eV    ::
         ::.................................................::
         :: SCC energy              -253.233032825784 Eh    ::
         :: -> isotropic ES            0.865799242999 Eh    ::
         :: -> anisotropic ES          0.016227756112 Eh    ::
         :: -> anisotropic XC          0.101022375168 Eh    ::
         :: -> dispersion             -0.163680476727 Eh    ::
         :: -> Gsolv                  -0.305267415935 Eh    ::
         ::    -> Gelec               -0.269880416289 Eh    ::
         ::    -> Gsasa                0.007344017317 Eh    ::
         ::    -> Ghb                 -0.043811776661 Eh    ::
         ::    -> Gshift               0.001080759698 Eh    ::
         :: repulsion energy           3.021334701100 Eh    ::
         :: add. restraining           0.000000000000 Eh    ::
         :: total charge              -0.000000000002 e     ::
         :::::::::::::::::::::::::::::::::::::::::::::::::::::

           -------------------------------------------------
          |                Property Printout                |
           -------------------------------------------------

    * Orbital Energies and Occupations

         #    Occupation            Energy/Eh            Energy/eV
      -------------------------------------------------------------
         1        2.0000           -0.7288009             -19.8317
       ...           ...                  ...                  ...
       210        2.0000           -0.3974721             -10.8158
       211        2.0000           -0.3944873             -10.7345
       212        2.0000           -0.3921955             -10.6722
       213        2.0000           -0.3917028             -10.6588
       214        2.0000           -0.3840245             -10.4498
       215        2.0000           -0.3754653             -10.2169
       216        2.0000           -0.3735402             -10.1645
       217        2.0000           -0.3716750             -10.1138
       218        1.9999           -0.3616332              -9.8405
       219        1.9995           -0.3553939              -9.6708
       220        1.9966           -0.3459061              -9.4126
       221        1.9954           -0.3444827              -9.3739
       222        1.9936           -0.3429143              -9.3312 (HOMO)
       223        0.0052           -0.2873956              -7.8204 (LUMO)
       224        0.0042           -0.2864152              -7.7938
       225        0.0034           -0.2853759              -7.7655
       226        0.0022           -0.2832198              -7.7068
       227                         -0.2312771              -6.2934
       228                         -0.2288547              -6.2275
       229                         -0.2234246              -6.0797
       230                         -0.2212304              -6.0200
       231                         -0.2206069              -6.0030
       232                         -0.2183774              -5.9424
       233                         -0.2148164              -5.8455
       ...                                ...                  ...
       403                          0.6239890              16.9796
      -------------------------------------------------------------
                  HL-Gap            0.0555187 Eh            1.5107 eV
             Fermi-level           -0.3156424 Eh           -8.5891 eV

     #   Z          covCN         q      C6AA      α(0)
     1   7 N        2.633    -0.375    29.679     8.091
     2   1 H        0.860     0.159     1.342     1.815
     3   6 C        3.788     0.034    20.023     6.373
     4   1 H        0.925     0.061     2.187     2.313
     5   6 C        3.807    -0.060    21.655     6.625
     6   1 H        0.924     0.064     2.152     2.294
     7   1 H        0.925     0.057     2.234     2.337
     8   6 C        3.804    -0.104    22.473     6.749
     9   1 H        0.925     0.094     1.842     2.122
    10   1 H        0.925     0.072     2.069     2.249
    11   6 C        2.744     0.289    22.096     7.697
    12   8 O        0.862    -0.529    24.439     6.628
    13   7 N        2.641    -0.300    27.720     7.819
    14   1 H        0.860     0.237     0.937     1.516
    15   1 H        0.860     0.245     0.905     1.490
    16   6 C        2.754     0.262    22.592     7.783
    17   8 O        0.861    -0.526    24.367     6.618
    18   7 N        2.694    -0.181    24.919     7.414
    19   1 H        0.861     0.206     1.074     1.623
    20   6 C        3.798     0.027    20.121     6.387
    21   1 H        0.924     0.073     2.051     2.240
    22   6 C        3.807    -0.047    21.414     6.588
    23   1 H        0.924     0.043     2.403     2.424
    24   1 H        0.924     0.046     2.369     2.407
    25   6 C        3.801    -0.091    22.241     6.714
    26   1 H        0.925     0.039     2.462     2.454
    27   1 H        0.924     0.027     2.635     2.538
    28   6 C        2.687     0.365    20.814     7.466
    29   8 O        0.856    -0.662    27.696     7.056
    30   8 O        0.857    -0.663    27.726     7.060
    31   6 C        2.745     0.284    22.188     7.713
    32   8 O        0.859    -0.510    24.007     6.569
    33   7 N        2.687    -0.155    24.348     7.329
    34   1 H        0.860     0.203     1.089     1.635
    35   6 C        3.794     0.017    20.296     6.415
    36   1 H        0.925     0.074     2.042     2.235
    37   6 C        3.864    -0.019    20.866     6.496
    38   1 H        0.924     0.056     2.248     2.345
    39   6 C        3.752    -0.115    22.768     6.804
    40   1 H        0.924     0.056     2.251     2.347
    41   1 H        0.924     0.047     2.356     2.400
    42   1 H        0.924     0.032     2.565     2.504
    43   6 C        3.754    -0.115    22.750     6.801
    44   1 H        0.924     0.036     2.502     2.474
    45   1 H        0.924     0.040     2.443     2.444
    46   1 H        0.925     0.053     2.277     2.360
    47   6 C        2.766     0.274    22.367     7.745
    48   8 O        0.859    -0.500    23.784     6.539
    49   7 N        2.691    -0.155    24.361     7.330
    50   1 H        0.860     0.214     1.036     1.595
    51   6 C        3.801     0.025    20.155     6.392
    52   1 H        0.924     0.076     2.017     2.221
    53   6 C        3.861    -0.020    20.898     6.501
    54   1 H        0.924     0.051     2.306     2.375
    55   6 C        3.753    -0.118    22.821     6.812
    56   1 H        0.925     0.052     2.297     2.370
    57   1 H        0.925     0.058     2.221     2.331
    58   1 H        0.924     0.031     2.578     2.511
    59   6 C        3.802    -0.067    21.776     6.644
    60   1 H        0.925     0.048     2.340     2.392
    61   1 H        0.924     0.047     2.354     2.399
    62   6 C        3.749    -0.117    22.802     6.811
    63   1 H        0.924     0.025     2.662     2.552
    64   1 H        0.925     0.048     2.341     2.393
    65   1 H        0.924     0.049     2.338     2.391
    66   6 C        2.756     0.275    22.341     7.740
    67   8 O        0.859    -0.506    23.915     6.557
    68   7 N        2.697    -0.171    24.707     7.382
    69   1 H        0.860     0.228     0.972     1.544
    70   6 C        3.790     0.033    20.032     6.374
    71   1 H        0.924     0.093     1.849     2.127
    72   6 C        3.814    -0.079    21.991     6.675
    73   1 H        0.925     0.081     1.970     2.195
    74   1 H        0.924     0.073     2.054     2.241
    75   6 C        3.807    -0.081    22.040     6.683
    76   1 H        0.925     0.068     2.109     2.271
    77   1 H        0.925     0.076     2.024     2.225
    78   6 C        3.733    -0.024    21.084     6.554
    79   1 H        0.925     0.102     1.771     2.081
    80   1 H        0.924     0.090     1.879     2.144
    81   7 N        2.695    -0.146    24.162     7.301
    82   1 H        0.861     0.229     0.968     1.541
    83   6 C        2.733     0.238    23.027     7.856
    84   7 N        2.653    -0.264    26.847     7.695
    85   1 H        0.860     0.248     0.893     1.480
    86   1 H        0.860     0.262     0.839     1.435
    87   7 N        2.657    -0.277    27.160     7.740
    88   1 H        0.860     0.255     0.864     1.456
    89   1 H        0.860     0.267     0.820     1.419
    90   6 C        2.758     0.215    23.446     7.929
    91   8 O        0.856    -0.387    21.419     6.205
    92   7 N        2.636    -0.373    29.620     8.083
    93   1 H        0.860     0.171     1.269     1.765
    94   6 C        3.785     0.030    20.092     6.385
    95   1 H        0.925     0.061     2.182     2.310
    96   6 C        3.756    -0.136    23.172     6.864
    97   1 H        0.925     0.057     2.240     2.340
    98   1 H        0.925     0.051     2.309     2.376
    99   1 H        0.925     0.042     2.417     2.431
   100   6 C        2.750     0.265    22.528     7.772
   101   8 O        0.862    -0.520    24.221     6.598
   102   7 N        2.689    -0.171    24.711     7.383
   103   1 H        0.860     0.212     1.046     1.602
   104   6 C        3.789     0.029    20.098     6.385
   105   1 H        0.925     0.117     1.642     2.004
   106   6 C        3.814    -0.072    21.873     6.657
   107   1 H        0.925     0.074     2.043     2.235
   108   1 H        0.925     0.061     2.185     2.311
   109   6 C        2.972     0.004    27.922     8.668
   110   6 C        2.911    -0.041    29.026     8.834
   111   1 H        0.925     0.054     2.273     2.357
   112   6 C        2.914    -0.060    29.493     8.905
   113   1 H        0.926     0.046     2.371     2.408
   114   6 C        2.840     0.139    24.970     8.189
   115   8 O        1.661    -0.462    22.098     6.346
   116   1 H        0.806     0.370     0.544     1.159
   117   6 C        2.907    -0.075    29.884     8.964
   118   1 H        0.925     0.047     2.357     2.401
   119   6 C        2.912    -0.048    29.201     8.861
   120   1 H        0.926     0.055     2.263     2.353
   121   6 C        2.757     0.206    23.634     7.961
   122   8 O        0.856    -0.386    21.400     6.202
   123   7 N        2.631    -0.363    29.365     8.048
   124   1 H        0.860     0.161     1.329     1.806
   125   6 C        3.786     0.043    19.864     6.348
   126   1 H        0.924     0.058     2.223     2.332
   127   6 C        3.808    -0.076    21.944     6.668
   128   1 H        0.924     0.048     2.339     2.392
   129   1 H        0.925     0.080     1.984     2.203
   130   6 C        3.073     0.044    26.942     8.510
   131   7 N        1.921    -0.318    29.088     7.997
   132   6 C        3.030     0.080    26.181     8.393
   133   1 H        0.926     0.048     2.342     2.393
   134   7 N        2.789    -0.108    23.359     7.178
   135   1 H        0.860     0.224     0.994     1.562
   136   6 C        3.019    -0.036    28.873     8.814
   137   1 H        0.925     0.042     2.428     2.437
   138   6 C        2.757     0.207    23.608     7.957
   139   8 O        0.857    -0.368    21.045     6.151
   140   7 N        2.634    -0.367    29.467     8.062
   141   1 H        0.860     0.160     1.337     1.812
   142   6 C        3.790     0.033    20.023     6.373
   143   1 H        0.924     0.057     2.229     2.335
   144   6 C        3.854    -0.023    20.948     6.510
   145   1 H        0.925     0.055     2.254     2.348
   146   6 C        3.760    -0.108    22.609     6.779
   147   1 H        0.925     0.051     2.307     2.375
   148   1 H        0.925     0.040     2.450     2.448
   149   1 H        0.924     0.036     2.503     2.474
   150   6 C        3.811    -0.062    21.679     6.628
   151   1 H        0.924     0.033     2.547     2.496
   152   1 H        0.925     0.031     2.574     2.509
   153   6 C        3.749    -0.114    22.747     6.802
   154   1 H        0.923     0.034     2.527     2.486
   155   1 H        0.925     0.048     2.344     2.394
   156   1 H        0.924     0.042     2.429     2.437
   157   6 C        2.759     0.212    23.503     7.939
   158   8 O        0.856    -0.395    21.578     6.228
   159   1 H        0.860     0.161     1.329     1.806
   160   1 H        0.923     0.070     2.081     2.256
   161   1 H        0.860     0.177     1.230     1.738
   162   1 H        0.923     0.078     1.995     2.209
   163   1 H        0.860     0.177     1.233     1.739
   164   1 H        0.923     0.059     2.209     2.325
   165   1 H        0.860     0.184     1.193     1.711
   166   1 H        0.923     0.055     2.256     2.349

 Mol. C6AA /au·bohr⁶  :     252989.026785
 Mol. C8AA /au·bohr⁸  :    5614157.566809
 Mol. α(0) /au        :        756.777488


Wiberg/Mayer (AO) data.
largest (>0.10) Wiberg bond orders for each atom

 ---------------------------------------------------------------------------
     #   Z sym  total        # sym  WBO       # sym  WBO       # sym  WBO
 ---------------------------------------------------------------------------
     1   7 N    3.014 --     3 C    1.007     2 H    0.967   159 H    0.957
     2   1 H    0.975 --     1 N    0.967
     3   6 C    3.977 --     1 N    1.007     5 C    0.988    16 C    0.945
                             4 H    0.937
     4   1 H    0.996 --     3 C    0.937
     5   6 C    3.991 --     8 C    1.002     3 C    0.988     6 H    0.972
                             7 H    0.972
     6   1 H    0.996 --     5 C    0.972
     7   1 H    0.996 --     5 C    0.972
     8   6 C    3.989 --     5 C    1.002    11 C    0.977    10 H    0.965
                             9 H    0.944
     9   1 H    0.991 --     8 C    0.944
    10   1 H    0.995 --     8 C    0.965
    11   6 C    3.941 --    12 O    1.621    13 N    1.316     8 C    0.977
    12   8 O    1.917 --    11 C    1.621    13 N    0.194
    13   7 N    3.388 --    11 C    1.316    14 H    0.925    15 H    0.917
                            12 O    0.194
    14   1 H    0.944 --    13 N    0.925
    15   1 H    0.940 --    13 N    0.917
    16   6 C    3.933 --    17 O    1.616    18 N    1.282     3 C    0.945
    17   8 O    1.917 --    16 C    1.616    18 N    0.186
    18   7 N    3.455 --    16 C    1.282    20 C    0.984    19 H    0.921
                            17 O    0.186
    19   1 H    0.957 --    18 N    0.921
    20   6 C    3.966 --    18 N    0.984    22 C    0.973    31 C    0.945
                            21 H    0.941
    21   1 H    0.994 --    20 C    0.941
    22   6 C    3.989 --    25 C    1.005    24 H    0.976    20 C    0.973
                            23 H    0.973
    23   1 H    0.997 --    22 C    0.973
    24   1 H    0.998 --    22 C    0.976
    25   6 C    3.992 --    22 C    1.005    27 H    0.971    26 H    0.963
                            28 C    0.938
    26   1 H    0.998 --    25 C    0.963
    27   1 H    0.999 --    25 C    0.971
    28   6 C    3.933 --    29 O    1.486    30 O    1.486    25 C    0.938
    29   8 O    1.774 --    28 C    1.486    30 O    0.214
    30   8 O    1.771 --    28 C    1.486    29 O    0.214
    31   6 C    3.950 --    32 O    1.623    33 N    1.302    20 C    0.945
    32   8 O    1.935 --    31 C    1.623    33 N    0.194
    33   7 N    3.469 --    31 C    1.302    35 C    0.981    34 H    0.912
                            32 O    0.194
    34   1 H    0.959 --    33 N    0.912
    35   6 C    3.963 --    33 N    0.981    37 C    0.949    47 C    0.947
                            36 H    0.945
    36   1 H    0.994 --    35 C    0.945
    37   6 C    3.990 --    43 C    1.009    39 C    1.004    38 H    0.961
                            35 C    0.949
    38   1 H    0.996 --    37 C    0.961
    39   6 C    3.993 --    37 C    1.004    42 H    0.988    41 H    0.985
                            40 H    0.983
    40   1 H    0.996 --    39 C    0.983
    41   1 H    0.998 --    39 C    0.985
    42   1 H    0.999 --    39 C    0.988
    43   6 C    3.995 --    37 C    1.009    45 H    0.986    44 H    0.986
                            46 H    0.985
    44   1 H    0.999 --    43 C    0.986
    45   1 H    0.998 --    43 C    0.986
    46   1 H    0.997 --    43 C    0.985
    47   6 C    3.953 --    48 O    1.630    49 N    1.303    35 C    0.947
    48   8 O    1.951 --    47 C    1.630    49 N    0.193
    49   7 N    3.472 --    47 C    1.303    51 C    0.980    50 H    0.914
                            48 O    0.193
    50   1 H    0.954 --    49 N    0.914
    51   6 C    3.960 --    49 N    0.980    53 C    0.965    52 H    0.942
                            66 C    0.940
    52   1 H    0.994 --    51 C    0.942
    53   6 C    3.986 --    55 C    1.005    59 C    0.996    51 C    0.965
                            54 H    0.955
    54   1 H    0.997 --    53 C    0.955
    55   6 C    3.990 --    53 C    1.005    57 H    0.984    58 H    0.983
                            56 H    0.976
    56   1 H    0.997 --    55 C    0.976
    57   1 H    0.997 --    55 C    0.984
    58   1 H    0.999 --    55 C    0.983
    59   6 C    3.993 --    62 C    1.018    53 C    0.996    60 H    0.975
                            61 H    0.972
    60   1 H    0.998 --    59 C    0.975
    61   1 H    0.998 --    59 C    0.972
    62   6 C    3.980 --    59 C    1.018    64 H    0.983    63 H    0.976
                            65 H    0.975
    63   1 H    0.999 --    62 C    0.976
    64   1 H    0.997 --    62 C    0.983
    65   1 H    0.998 --    62 C    0.975
    66   6 C    3.947 --    67 O    1.640    68 N    1.286    51 C    0.940
    67   8 O    1.956 --    66 C    1.640    68 N    0.192
    68   7 N    3.449 --    66 C    1.286    70 C    0.977    69 H    0.907
                            67 O    0.192
    69   1 H    0.948 --    68 N    0.907
    70   6 C    3.961 --    90 C    0.996    68 N    0.977    72 C    0.951
                            71 H    0.934
    71   1 H    0.991 --    70 C    0.934
    72   6 C    3.971 --    75 C    1.006    73 H    0.966    74 H    0.966
                            70 C    0.951
    73   1 H    0.993 --    72 C    0.966
    74   1 H    0.995 --    72 C    0.966
    75   6 C    3.988 --    72 C    1.006    78 C    1.005    76 H    0.964
                            77 H    0.963
    76   1 H    0.995 --    75 C    0.964
    77   1 H    0.994 --    75 C    0.963
    78   6 C    3.953 --    75 C    1.005    81 N    0.980    79 H    0.960
                            80 H    0.959
    79   1 H    0.990 --    78 C    0.960
    80   1 H    0.991 --    78 C    0.959
    81   7 N    3.462 --    83 C    1.313    78 C    0.980    82 H    0.911
                            87 N    0.102    84 N    0.101
    82   1 H    0.947 --    81 N    0.911
    83   6 C    3.976 --    84 N    1.317    81 N    1.313    87 N    1.313
    84   7 N    3.388 --    83 C    1.317    85 H    0.917    86 H    0.911
                            81 N    0.101    87 N    0.101
    85   1 H    0.939 --    84 N    0.917
    86   1 H    0.931 --    84 N    0.911
    87   7 N    3.376 --    83 C    1.313    88 H    0.914    89 H    0.908
                            81 N    0.102    84 N    0.101
    88   1 H    0.935 --    87 N    0.914
    89   1 H    0.928 --    87 N    0.908
    90   6 C    3.885 --    91 O    1.877    70 C    0.996   160 H    0.935
    91   8 O    2.037 --    90 C    1.877
    92   7 N    3.012 --    94 C    1.019    93 H    0.956   161 H    0.955
    93   1 H    0.971 --    92 N    0.956
    94   6 C    3.985 --    92 N    1.019    96 C    0.997    95 H    0.942
                           100 C    0.941
    95   1 H    0.996 --    94 C    0.942
    96   6 C    3.993 --    94 C    0.997    99 H    0.982    97 H    0.982
                            98 H    0.980
    97   1 H    0.997 --    96 C    0.982
    98   1 H    0.997 --    96 C    0.980
    99   1 H    0.998 --    96 C    0.982
   100   6 C    3.938 --   101 O    1.619   102 N    1.302    94 C    0.941
   101   8 O    1.923 --   100 C    1.619   102 N    0.192
   102   7 N    3.470 --   100 C    1.302   104 C    0.983   103 H    0.918
                           101 O    0.192
   103   1 H    0.955 --   102 N    0.918
   104   6 C    3.965 --   121 C    0.998   102 N    0.983   106 C    0.947
                           105 H    0.912
   105   1 H    0.986 --   104 C    0.912
   106   6 C    3.982 --   109 C    1.007   108 H    0.970   107 H    0.955
                           104 C    0.947
   107   1 H    0.993 --   106 C    0.955
   108   1 H    0.996 --   106 C    0.970
   109   6 C    3.986 --   119 C    1.406   110 C    1.406   106 C    1.007
   110   6 C    3.988 --   112 C    1.461   109 C    1.406   111 H    0.962
                           117 C    0.102
   111   1 H    0.997 --   110 C    0.962
   112   6 C    3.986 --   110 C    1.461   114 C    1.351   113 H    0.970
                           119 C    0.110
   113   1 H    0.998 --   112 C    0.970
   114   6 C    3.929 --   117 C    1.377   112 C    1.351   115 O    1.072
   115   8 O    2.075 --   114 C    1.072   116 H    0.844
   116   1 H    0.863 --   115 O    0.844
   117   6 C    3.984 --   119 C    1.440   114 C    1.377   118 H    0.966
                           110 C    0.102
   118   1 H    0.998 --   117 C    0.966
   119   6 C    3.982 --   117 C    1.440   109 C    1.406   120 H    0.968
                           112 C    0.110
   120   1 H    0.997 --   119 C    0.968
   121   6 C    3.881 --   122 O    1.879   104 C    0.998   162 H    0.935
   122   8 O    2.034 --   121 C    1.879
   123   7 N    3.015 --   125 C    1.024   124 H    0.959   163 H    0.955
   124   1 H    0.974 --   123 N    0.959
   125   6 C    3.985 --   123 N    1.024   138 C    0.991   126 H    0.955
                           127 C    0.928
   126   1 H    0.996 --   125 C    0.955
   127   6 C    3.988 --   130 C    1.014   128 H    0.963   129 H    0.960
                           125 C    0.928
   128   1 H    0.997 --   127 C    0.963
   129   1 H    0.994 --   127 C    0.960
   130   6 C    3.973 --   136 C    1.559   131 N    1.270   127 C    1.014
   131   7 N    2.990 --   132 C    1.520   130 C    1.270   134 N    0.104
   132   6 C    3.954 --   131 N    1.520   134 N    1.292   133 H    0.964
                           136 C    0.119
   133   1 H    0.997 --   132 C    0.964
   134   7 N    3.596 --   132 C    1.292   136 C    1.211   135 H    0.920
                           131 N    0.104
   135   1 H    0.950 --   134 N    0.920
   136   6 C    3.939 --   130 C    1.559   134 N    1.211   137 H    0.964
                           132 C    0.119
   137   1 H    0.998 --   136 C    0.964
   138   6 C    3.885 --   139 O    1.886   125 C    0.991   164 H    0.938
   139   8 O    2.051 --   138 C    1.886
   140   7 N    3.039 --   142 C    1.010   141 H    0.953   165 H    0.950
   141   1 H    0.974 --   140 N    0.953
   142   6 C    3.979 --   140 N    1.010   157 C    0.981   143 H    0.952
                           144 C    0.947
   143   1 H    0.996 --   142 C    0.952
   144   6 C    3.991 --   146 C    1.006   150 C    0.996   145 H    0.962
                           142 C    0.947
   145   1 H    0.997 --   144 C    0.962
   146   6 C    3.995 --   144 C    1.006   147 H    0.981   148 H    0.980
                           149 H    0.980
   147   1 H    0.997 --   146 C    0.981
   148   1 H    0.998 --   146 C    0.980
   149   1 H    0.999 --   146 C    0.980
   150   6 C    3.996 --   153 C    1.017   144 C    0.996   152 H    0.977
                           151 H    0.976
   151   1 H    0.999 --   150 C    0.976
   152   1 H    0.999 --   150 C    0.977
   153   6 C    3.994 --   150 C    1.017   154 H    0.988   156 H    0.986
                           155 H    0.985
   154   1 H    0.998 --   153 C    0.988
Note: The following floating-point exceptions are signalling: IEEE_UNDERFLOW_FLAG IEEE_DENORMAL
normal termination of xtb
   155   1 H    0.998 --   153 C    0.985
   156   1 H    0.998 --   153 C    0.986
   157   6 C    3.877 --   158 O    1.877   142 C    0.981   166 H    0.936
   158   8 O    2.034 --   157 C    1.877
   159   1 H    0.974 --     1 N    0.957
   160   1 H    0.995 --    90 C    0.935
   161   1 H    0.968 --    92 N    0.955
   162   1 H    0.993 --   121 C    0.935
   163   1 H    0.969 --   123 N    0.955
   164   1 H    0.996 --   138 C    0.938
   165   1 H    0.966 --   140 N    0.950
   166   1 H    0.997 --   157 C    0.936
 ---------------------------------------------------------------------------

Topologies differ in total number of bonds
Writing topology from bond orders to xtbtopo.mol

molecular dipole:
                 x           y           z       tot (Debye)
 q only:       14.560      -9.730     -29.115
   full:       14.163     -10.056     -28.590      85.028
molecular quadrupole (traceless):
                xx          xy          yy          xz          yz          zz
 q only:     4783.105     427.781     546.053    -918.557   -3791.802   -5329.159
  q+dip:     4685.144     382.235     523.412    -913.981   -3786.757   -5208.557
   full:     4684.313     380.843     525.291    -916.550   -3786.460   -5209.604


           -------------------------------------------------
          | TOTAL ENERGY             -250.211698124684 Eh   |
          | GRADIENT NORM               0.244862563842 Eh/α |
          | HOMO-LUMO GAP               1.510739943096 eV   |
           -------------------------------------------------

------------------------------------------------------------------------
 * finished run on 2026/01/05 at 09:06:37.554     
------------------------------------------------------------------------
 total:
 * wall-time:     0 d,  0 h,  0 min,  0.787 sec
 *  cpu-time:     0 d,  0 h,  0 min, 11.457 sec
 * ratio c/w:    14.554 speedup
 SCF:
 * wall-time:     0 d,  0 h,  0 min,  0.738 sec
 *  cpu-time:     0 d,  0 h,  0 min, 10.720 sec
 * ratio c/w:    14.535 speedup

