      -----------------------------------------------------------      
     |                   =====================                   |     
     |                           x T B                           |     
     |                   =====================                   |     
     |                         S. Grimme                         |     
     |          Mulliken Center for Theoretical Chemistry        |     
     |                    University of Bonn                     |     
      -----------------------------------------------------------      

   * xtb version 6.7.1 (edcfbbe) compiled by 'conda@c0858423619e' on 2025-09-04

   xtb is free software: you can redistribute it and/or modify it under
   the terms of the GNU Lesser General Public License as published by
   the Free Software Foundation, either version 3 of the License, or
   (at your option) any later version.
   
   xtb is distributed in the hope that it will be useful,
   but WITHOUT ANY WARRANTY; without even the implied warranty of
   MERCHANTABILITY or FITNESS FOR A PARTICULAR PURPOSE.  See the
   GNU Lesser General Public License for more details.
   
   Cite this work as:
   * C. Bannwarth, E. Caldeweyher, S. Ehlert, A. Hansen, P. Pracht,
     J. Seibert, S. Spicher, S. Grimme, WIREs Comput. Mol. Sci., 2020, 11,
     e01493. DOI: 10.1002/wcms.1493
   
   for GFN2-xTB:
   * C. Bannwarth, S. Ehlert and S. Grimme., J. Chem. Theory Comput., 2019,
     15, 1652-1671. DOI: 10.1021/acs.jctc.8b01176
   for GFN1-xTB:
   * S. Grimme, C. Bannwarth, P. Shushkov, J. Chem. Theory Comput., 2017,
     13, 1989-2009. DOI: 10.1021/acs.jctc.7b00118
   for GFN0-xTB:
   * P. Pracht, E. Caldeweyher, S. Ehlert, S. Grimme, ChemRxiv, 2019, preprint.
     DOI: 10.26434/chemrxiv.8326202.v1
   for GFN-FF:
   * S. Spicher and S. Grimme, Angew. Chem. Int. Ed., 2020, 59, 15665-15673.
     DOI: 10.1002/anie.202004239
   
   for ALPB and GBSA implicit solvation:
   * S. Ehlert, M. Stahn, S. Spicher, S. Grimme, J. Chem. Theory Comput.,
     2021, 17, 4250-4261. DOI: 10.1021/acs.jctc.1c00471
   
   for ddCOSMO and CPCM-X implicit solvation:
   * M. Stahn, S. Ehlert, S. Grimme, J. Phys. Chem. A,
     2023, XX, XXXX-XXXX. DOI: 10.1021/acs.jpca.3c04382
   
   for DFT-D4:
   * E. Caldeweyher, C. Bannwarth and S. Grimme, J. Chem. Phys., 2017,
     147, 034112. DOI: 10.1063/1.4993215
   * E. Caldeweyher, S. Ehlert, A. Hansen, H. Neugebauer, S. Spicher,
     C. Bannwarth and S. Grimme, J. Chem. Phys., 2019, 150, 154122.
     DOI: 10.1063/1.5090222
   * E. Caldeweyher, J.-M. Mewes, S. Ehlert and S. Grimme, Phys. Chem. Chem. Phys.
     2020, 22, 8499-8512. DOI: 10.1039/D0CP00502A
   
   for sTDA-xTB:
   * S. Grimme and C. Bannwarth, J. Chem. Phys., 2016, 145, 054103.
     DOI: 10.1063/1.4959605
   
   in the mass-spec context:
   * V. Asgeirsson, C. Bauer and S. Grimme, Chem. Sci., 2017, 8, 4879.
     DOI: 10.1039/c7sc00601b
   * J. Koopman and S. Grimme, ACS Omega 2019, 4, 12, 15120-15133.
     DOI: 10.1021/acsomega.9b02011
   
   for metadynamics refer to:
   * S. Grimme, J. Chem. Theory Comput., 2019, 155, 2847-2862
     DOI: 10.1021/acs.jctc.9b00143
   
   for SPH calculations refer to:
   * S. Spicher and S. Grimme, J. Chem. Theory Comput., 2021, 17, 1701-1714
     DOI: 10.1021/acs.jctc.0c01306
   
   for ONIOM refer to:
   * C. Plett, A. Katbashev, S. Ehlert, S. Grimme, M. Bursch,
     Phys. Chem. Chem. Phys., 2023, 25, 17860-17868. DOI: 10.1039/D3CP02178E
   
   for DIPRO refer to:
   * J. Kohn, N. Gildemeister, S. Grimme, D. Fazzi, A. Hansen,
     J. Chem. Phys., 2023, just accepted.
   
   for PTB refer to:
   * S. Grimme, M. Mueller, A. Hansen, J. Chem. Phys., 2023, 158, 124111.
     DOI: 10.1063/5.0137838
   
   with help from (in alphabetical order)
   P. Atkinson, C. Bannwarth, F. Bohle, G. Brandenburg, E. Caldeweyher
   M. Checinski, S. Dohm, S. Ehlert, S. Ehrlich, I. Gerasimov, C. Hölzer
   A. Katbashev, J. Kohn, J. Koopman, C. Lavigne, S. Lehtola, F. März, M. Müller,
   F. Musil, H. Neugebauer, J. Pisarek, C. Plett, P. Pracht, F. Pultar,
   J. Seibert, P. Shushkov, S. Spicher, M. Stahn, M. Steiner, T. Strunk,
   J. Stückrath, T. Rose, and J. Unsleber
   
 * started run on 2026/01/05 at 09:06:41.449     
   ID    Z sym.   atoms
    1    7 N      1, 22, 42, 54, 74, 94, 109, 125, 144, 165, 173, 176, 182,
                  201
    2    1 H      2, 4, 6, 7, 10, 12, 15, 17, 19, 23, 25, 27, 28, 31, 33, 35,
                  37, 39, 43, 45, 47, 48, 55, 57, 59, 60, 63, 65, 67, 69, 71,
                  75, 77, 79, 80, 83, 85, 87, 89, 91, 95, 97, 99, 100, 102,
                  103, 110, 112, 114, 116-118, 120-122, 126, 128, 130,
                  132-134, 136, 137, 139-141, 145, 147, 149, 150, 153, 155,
                  158, 160, 162, 166, 168, 170, 171, 175, 177, 179, 183, 185,
                  187, 189-191, 193, 194, 196-198, 202, 204, 206, 208-210,
                  212, 213, 215-217, 220-235
    3    6 C      3, 5, 8, 9, 11, 13, 16, 18, 20, 24, 26, 29, 30, 32, 34, 36,
                  38, 40, 44, 46, 49, 52, 56, 58, 61, 62, 64, 66, 68, 70, 72,
                  76, 78, 81, 82, 84, 86, 88, 90, 92, 96, 98, 101, 104, 107,
                  111, 113, 115, 119, 123, 127, 129, 131, 135, 138, 142, 146,
                  148, 151, 152, 154, 156, 159, 161, 163, 167, 169, 172, 174,
                  178, 180, 184, 186, 188, 192, 195, 199, 203, 205, 207, 211,
                  214, 218
    4    8 O      14, 21, 41, 50, 51, 53, 73, 93, 105, 106, 108, 124, 143,
                  157, 164, 181, 200, 219

           -------------------------------------------------
          |                Calculation Setup                |
           -------------------------------------------------

          program call               : xtb /home/antonio_mesquita/Documentos/gmx_ISA_project/testes_arquivos_primeiros/gmx_ISA_testes/testes_qm_xtb/QM_analysis/QM_FRAMES_CAPPED/frame_2000ps/residues_pocket_capped_2000ps.xyz --gfn 2 --alpb water --chrg -2 --etemp 1500 --cycles 1000
          coordinate file            : /home/antonio_mesquita/Documentos/gmx_ISA_project/testes_arquivos_primeiros/gmx_ISA_testes/testes_qm_xtb/QM_analysis/QM_FRAMES_CAPPED/frame_2000ps/residues_pocket_capped_2000ps.xyz
          omp threads                :                    16


molecular fragmentation (1/2 indicates fragments):
111111111111111111111222222222222222222222222222222222222222222222222222
222222222222222222222222222222222222222222222222222222222222222222222222
222222222222222222222222222222222222222222222222222222222222222222222222
2221122222222222222
# atoms in fragment 1/2:    23   212
 fragment masses (1/2) :      165.19     1436.74
CMA distance (Bohr)    :  15.323
constraining FC (au)   :  0.0500

           -------------------------------------------------
          |                 G F N 2 - x T B                 |
           -------------------------------------------------

        Reference                      10.1021/acs.jctc.8b01176
      * Hamiltonian:
        H0-scaling (s, p, d)           1.850000    2.230000    2.230000
        zeta-weighting                 0.500000
      * Dispersion:
        s8                             2.700000
        a1                             0.520000
        a2                             5.000000
        s9                             5.000000
      * Repulsion:
        kExp                           1.500000    1.000000
        rExp                           1.000000
      * Coulomb:
        alpha                          2.000000
        third order                    shell-resolved
        anisotropic                    true
        a3                             3.000000
        a5                             4.000000
        cn-shift                       1.200000
        cn-exp                         4.000000
        max-rad                        5.000000

      * Solvation model:               ALPB
        Solvent                        water
        Parameter file                 internal GFN2-xTB/ALPB
        Dielectric constant                8.0200E+01
        Reference state                gsolv [1 M gas/solution]
        Free energy shift                  1.0808E-03 Eh       6.7819E-01 kcal/mol
        Temperature                        2.9815E+02 K
        Density                            1.0000E+00 kg/L
        Solvent mass                       1.8000E+01 g/mol
        Interaction kernel             P16
        Born radius scaling (c1)           1.4744E+00
        Born radii integrator          GBOBC
        Born offset                        0.0000E+00 a0       0.0000E+00 AA
        H-bond correction              true
        Ion screening                  false
        Surface tension                    1.0000E-05 Eh       1.5569E+01 dyn/cm
        Grid points                               230 per atom

          ...................................................
          :                      SETUP                      :
          :.................................................:
          :  # basis functions                 580          :
          :  # atomic orbitals                 580          :
          :  # shells                          350          :
          :  # electrons                       632          :
          :  max. iterations                   250          :
          :  Hamiltonian                  GFN2-xTB          :
          :  restarted?                      false          :
          :  GBSA solvation                   true          :
          :  PC potential                    false          :
          :  electronic temp.         1500.0000000     K    :
          :  accuracy                    1.0000000          :
          :  -> integral cutoff          0.2500000E+02      :
          :  -> integral neglect         0.1000000E-07      :
          :  -> SCF convergence          0.1000000E-05 Eh   :
          :  -> wf. convergence          0.1000000E-03 e    :
          :  Broyden damping             0.4000000          :
          :  net charge                         -2          :
          :  unpaired electrons                  0          :
          ...................................................

 iter      E             dE          RMSdq      gap      omega  full diag
   1   -357.0370562 -0.357037E+03  0.447E+00    1.69       0.0  T
   2   -357.7338589 -0.696803E+00  0.231E+00    0.96       1.0  T
   3   -357.7532185 -0.193596E-01  0.126E+00    1.65       1.0  T
   4   -357.8017628 -0.485443E-01  0.262E-01    1.14       1.0  T
   5   -357.8094026 -0.763976E-02  0.107E-01    1.26       1.0  T
   6   -357.8097836 -0.380984E-03  0.592E-02    1.21       1.0  T
   7   -357.8099467 -0.163158E-03  0.238E-02    1.20       1.0  T
   8   -357.8099730 -0.262954E-04  0.977E-03    1.20       1.0  T
   9   -357.8099779 -0.481621E-05  0.520E-03    1.19       1.3  T
  10   -357.8099793 -0.140005E-05  0.262E-03    1.19       2.5  T
  11   -357.8099797 -0.408011E-06  0.121E-03    1.19       5.4  T
  12   -357.8099798 -0.924025E-07  0.550E-04    1.19      11.9  T
  13   -357.8099798 -0.147215E-07  0.279E-04    1.19      23.4  T

   *** convergence criteria satisfied after 13 iterations ***

         #    Occupation            Energy/Eh            Energy/eV
      -------------------------------------------------------------
         1        2.0000           -0.7359947             -20.0274
       ...           ...                  ...                  ...
       310        1.9965           -0.3450447              -9.3891
       311        1.9950           -0.3433756              -9.3437
       312        1.9949           -0.3432792              -9.3411
       313        1.9937           -0.3422053              -9.3119
       314        1.9918           -0.3409775              -9.2785
       315        1.9860           -0.3384383              -9.2094
       316        1.9850           -0.3380907              -9.1999 (HOMO)
       317        0.0257           -0.2942645              -8.0073 (LUMO)
       318        0.0152           -0.2917524              -7.9390
       319        0.0082           -0.2887853              -7.8582
       320        0.0061           -0.2874065              -7.8207
       321        0.0022           -0.2825445              -7.6884
       ...           ...                  ...                  ...
       580                          0.6410471              17.4438
      -------------------------------------------------------------
                  HL-Gap            0.0438262 Eh            1.1926 eV
             Fermi-level           -0.3148879 Eh           -8.5685 eV

 SCC (total)                   0 d,  0 h,  0 min,  1.615 sec
 SCC setup                      ...        0 min,  0.011 sec (  0.677%)
 Dispersion                     ...        0 min,  0.019 sec (  1.149%)
 classical contributions        ...        0 min,  0.002 sec (  0.131%)
 integral evaluation            ...        0 min,  0.052 sec (  3.212%)
 iterations                     ...        0 min,  1.336 sec ( 82.773%)
 molecular gradient             ...        0 min,  0.183 sec ( 11.345%)
 printout                       ...        0 min,  0.011 sec (  0.710%)

         :::::::::::::::::::::::::::::::::::::::::::::::::::::
         ::                     SUMMARY                     ::
         :::::::::::::::::::::::::::::::::::::::::::::::::::::
         :: total energy            -353.286276496616 Eh    ::
         :: total w/o Gsasa/hb      -353.262930211329 Eh    ::
         :: gradient norm              0.313772335138 Eh/a0 ::
         :: HOMO-LUMO gap              1.192570729946 eV    ::
         ::.................................................::
         :: SCC energy              -357.800037490735 Eh    ::
         :: -> isotropic ES            1.117319410377 Eh    ::
         :: -> anisotropic ES          0.036774723309 Eh    ::
         :: -> anisotropic XC          0.154541209485 Eh    ::
         :: -> dispersion             -0.251991926530 Eh    ::
         :: -> Gsolv                  -0.366031394382 Eh    ::
         ::    -> Gelec               -0.342685109095 Eh    ::
         ::    -> Gsasa                0.013436315990 Eh    ::
         ::    -> Ghb                 -0.037863360975 Eh    ::
         ::    -> Gshift               0.001080759698 Eh    ::
         :: repulsion energy           4.513760994119 Eh    ::
         :: add. restraining           0.000000000000 Eh    ::
         :: total charge              -1.999999999999 e     ::
         :::::::::::::::::::::::::::::::::::::::::::::::::::::

           -------------------------------------------------
          |                Property Printout                |
           -------------------------------------------------

    * Orbital Energies and Occupations

         #    Occupation            Energy/Eh            Energy/eV
      -------------------------------------------------------------
         1        2.0000           -0.7359947             -20.0274
       ...           ...                  ...                  ...
       304        2.0000           -0.3723211             -10.1314
       305        2.0000           -0.3719430             -10.1211
       306        2.0000           -0.3690801             -10.0432
       307        1.9999           -0.3633869              -9.8883
       308        1.9996           -0.3553294              -9.6690
       309        1.9973           -0.3462176              -9.4211
       310        1.9965           -0.3450447              -9.3891
       311        1.9950           -0.3433756              -9.3437
       312        1.9949           -0.3432792              -9.3411
       313        1.9937           -0.3422053              -9.3119
       314        1.9918           -0.3409775              -9.2785
       315        1.9860           -0.3384383              -9.2094
       316        1.9850           -0.3380907              -9.1999 (HOMO)
       317        0.0257           -0.2942645              -8.0073 (LUMO)
       318        0.0152           -0.2917524              -7.9390
       319        0.0082           -0.2887853              -7.8582
       320        0.0061           -0.2874065              -7.8207
       321        0.0022           -0.2825445              -7.6884
       322        0.0016           -0.2809015              -7.6437
       323        0.0007           -0.2769883              -7.5372
       324        0.0006           -0.2764058              -7.5214
       325                         -0.2267579              -6.1704
       326                         -0.2227970              -6.0626
       327                         -0.2224091              -6.0521
       ...                                ...                  ...
       580                          0.6410471              17.4438
      -------------------------------------------------------------
                  HL-Gap            0.0438262 Eh            1.1926 eV
             Fermi-level           -0.3148879 Eh           -8.5685 eV

     #   Z          covCN         q      C6AA      α(0)
     1   7 N        2.633    -0.366    29.441     8.058
     2   1 H        0.860     0.161     1.327     1.804
     3   6 C        3.790     0.037    19.962     6.363
     4   1 H        0.925     0.080     1.984     2.203
     5   6 C        3.822    -0.081    22.024     6.678
     6   1 H        0.924     0.082     1.955     2.186
     7   1 H        0.924     0.059     2.208     2.324
     8   6 C        2.973     0.007    27.863     8.658
     9   6 C        2.925    -0.049    29.216     8.864
    10   1 H        0.926     0.042     2.426     2.436
    11   6 C        2.918    -0.069    29.721     8.940
    12   1 H        0.925     0.021     2.726     2.582
    13   6 C        2.832     0.135    25.054     8.202
    14   8 O        1.660    -0.476    22.379     6.386
    15   1 H        0.806     0.333     0.630     1.246
    16   6 C        2.930    -0.063    29.573     8.918
    17   1 H        0.925     0.030     2.579     2.512
    18   6 C        2.907    -0.039    28.975     8.826
    19   1 H        0.926     0.058     2.222     2.331
    20   6 C        2.763     0.213    23.494     7.938
    21   8 O        0.856    -0.393    21.538     6.222
    22   7 N        2.631    -0.371    29.572     8.076
    23   1 H        0.860     0.155     1.370     1.834
    24   6 C        3.788     0.034    20.020     6.373
    25   1 H        0.924     0.068     2.111     2.272
    26   6 C        3.813    -0.069    21.813     6.648
    27   1 H        0.924     0.068     2.113     2.273
    28   1 H        0.924     0.038     2.482     2.464
    29   6 C        2.974     0.012    27.738     8.639
    30   6 C        2.908    -0.045    29.121     8.849
    31   1 H        0.925     0.059     2.206     2.323
    32   6 C        2.914    -0.039    28.969     8.826
    33   1 H        0.926     0.054     2.264     2.353
    34   6 C        2.908    -0.037    28.924     8.819
    35   1 H        0.925     0.042     2.425     2.435
    36   6 C        2.917    -0.034    28.842     8.807
    37   1 H        0.925     0.018     2.764     2.600
    38   6 C        2.908    -0.041    29.027     8.834
    39   1 H        0.926     0.011     2.868     2.648
    40   6 C        2.747     0.272    22.402     7.750
    41   8 O        0.860    -0.533    24.525     6.640
    42   7 N        2.685    -0.170    24.686     7.379
    43   1 H        0.860     0.223     0.994     1.562
    44   6 C        3.791     0.049    19.772     6.333
    45   1 H        0.924     0.066     2.130     2.282
    46   6 C        3.815    -0.074    21.907     6.662
    47   1 H        0.924     0.036     2.506     2.476
    48   1 H        0.925     0.054     2.265     2.353
    49   6 C        2.691     0.366    20.797     7.463
    50   8 O        0.857    -0.639    27.090     6.978
    51   8 O        0.859    -0.644    27.212     6.994
    52   6 C        2.767     0.205    23.641     7.963
    53   8 O        0.857    -0.363    20.947     6.136
    54   7 N        2.633    -0.361    29.301     8.039
    55   1 H        0.860     0.171     1.265     1.762
    56   6 C        3.785     0.045    19.837     6.344
    57   1 H        0.924     0.057     2.231     2.336
    58   6 C        3.816    -0.070    21.827     6.649
    59   1 H        0.925     0.061     2.182     2.310
    60   1 H        0.924     0.067     2.124     2.279
    61   6 C        2.961     0.008    27.835     8.654
    62   6 C        2.918    -0.038    28.936     8.821
    63   1 H        0.925     0.042     2.425     2.435
    64   6 C        2.906    -0.036    28.898     8.814
    65   1 H        0.926     0.040     2.452     2.449
    66   6 C        2.913    -0.044    29.096     8.845
    67   1 H        0.925     0.026     2.641     2.541
    68   6 C        2.911    -0.042    29.045     8.837
    69   1 H        0.926     0.030     2.581     2.512
    70   6 C        2.914    -0.049    29.208     8.862
    71   1 H        0.925     0.038     2.478     2.462
    72   6 C        2.761     0.206    23.622     7.959
    73   8 O        0.856    -0.373    21.156     6.167
    74   7 N        2.641    -0.353    29.086     8.010
    75   1 H        0.860     0.171     1.269     1.765
    76   6 C        3.783     0.044    19.853     6.347
    77   1 H        0.926     0.062     2.181     2.309
    78   6 C        3.823    -0.063    21.697     6.629
    79   1 H        0.925     0.063     2.166     2.301
    80   1 H        0.924     0.033     2.543     2.494
    81   6 C        2.960     0.011    27.778     8.645
    82   6 C        2.913    -0.042    29.053     8.839
    83   1 H        0.926     0.026     2.639     2.541
    84   6 C        2.919    -0.041    29.012     8.833
    85   1 H        0.925     0.038     2.472     2.458
    86   6 C        2.901    -0.049    29.204     8.861
    87   1 H        0.926     0.049     2.330     2.387
    88   6 C        2.922    -0.036    28.903     8.816
    89   1 H        0.926     0.040     2.447     2.446
    90   6 C        2.910    -0.035    28.859     8.809
    91   1 H        0.926     0.046     2.365     2.405
    92   6 C        2.763     0.212    23.519     7.942
    93   8 O        0.856    -0.384    21.370     6.198
    94   7 N        2.648    -0.382    29.879     8.118
    95   1 H        0.860     0.163     1.317     1.798
    96   6 C        3.789     0.040    19.907     6.355
    97   1 H        0.925     0.044     2.394     2.420
    98   6 C        3.808    -0.041    21.310     6.571
    99   1 H        0.924     0.042     2.424     2.435
   100   1 H        0.925     0.047     2.355     2.400
   101   6 C        3.804    -0.086    22.139     6.699
   102   1 H        0.925     0.026     2.648     2.545
   103   1 H        0.925     0.027     2.631     2.536
   104   6 C        2.687     0.362    20.853     7.473
   105   8 O        0.859    -0.666    27.807     7.070
   106   8 O        0.859    -0.664    27.750     7.063
   107   6 C        2.762     0.263    22.565     7.779
   108   8 O        0.861    -0.542    24.740     6.669
   109   7 N        2.691    -0.153    24.316     7.324
   110   1 H        0.860     0.217     1.025     1.586
   111   6 C        3.804     0.022    20.201     6.399
   112   1 H        0.925     0.077     2.009     2.217
   113   6 C        3.855    -0.016    20.825     6.490
   114   1 H        0.924     0.054     2.266     2.354
   115   6 C        3.760    -0.112    22.700     6.792
   116   1 H        0.924     0.043     2.412     2.429
   117   1 H        0.924     0.033     2.545     2.495
   118   1 H        0.924     0.053     2.279     2.361
   119   6 C        3.755    -0.119    22.829     6.813
   120   1 H        0.924     0.047     2.356     2.400
   121   1 H        0.925     0.048     2.348     2.396
   122   1 H        0.924     0.059     2.212     2.326
   123   6 C        2.758     0.264    22.549     7.776
   124   8 O        0.860    -0.529    24.424     6.626
   125   7 N        2.688    -0.157    24.400     7.336
   126   1 H        0.860     0.208     1.066     1.617
   127   6 C        3.796     0.031    20.064     6.378
   128   1 H        0.924     0.090     1.881     2.145
   129   6 C        3.857    -0.016    20.817     6.489
   130   1 H        0.924     0.064     2.153     2.294
   131   6 C        3.755    -0.129    23.043     6.845
   132   1 H        0.925     0.053     2.286     2.365
   133   1 H        0.924     0.061     2.186     2.312
   134   1 H        0.925     0.057     2.238     2.339
   135   6 C        3.804    -0.067    21.780     6.644
   136   1 H        0.925     0.040     2.453     2.449
   137   1 H        0.925     0.043     2.405     2.425
   138   6 C        3.750    -0.118    22.821     6.813
   139   1 H        0.924     0.050     2.319     2.382
   140   1 H        0.924     0.048     2.345     2.395
   141   1 H        0.925     0.042     2.422     2.434
   142   6 C        2.758     0.206    23.630     7.960
   143   8 O        0.857    -0.378    21.238     6.179
   144   7 N        2.630    -0.367    29.466     8.062
   145   1 H        0.860     0.167     1.290     1.779
   146   6 C        3.784     0.040    19.917     6.357
   147   1 H        0.924     0.081     1.972     2.196
   148   6 C        3.808    -0.065    21.748     6.639
   149   1 H        0.924     0.060     2.204     2.322
   150   1 H        0.924     0.048     2.345     2.395
   151   6 C        2.959     0.005    27.907     8.665
   152   6 C        2.915    -0.043    29.073     8.842
   153   1 H        0.926     0.047     2.356     2.400
   154   6 C        2.919    -0.073    29.808     8.953
   155   1 H        0.926     0.036     2.503     2.474
   156   6 C        2.826     0.144    24.866     8.171
   157   8 O        1.660    -0.442    21.685     6.286
   158   1 H        0.806     0.347     0.594     1.211
   159   6 C        2.923    -0.062    29.547     8.914
   160   1 H        0.925     0.042     2.421     2.433
   161   6 C        2.914    -0.043    29.070     8.841
   162   1 H        0.925     0.048     2.343     2.394
   163   6 C        2.759     0.197    23.790     7.987
   164   8 O        0.856    -0.401    21.700     6.246
   165   7 N        2.631    -0.364    29.394     8.052
   166   1 H        0.860     0.179     1.219     1.729
   167   6 C        3.786     0.051    19.732     6.327
   168   1 H        0.924     0.048     2.340     2.392
   169   6 C        3.809    -0.071    21.858     6.655
   170   1 H        0.924     0.057     2.232     2.336
   171   1 H        0.925     0.064     2.149     2.292
   172   6 C        3.044     0.038    27.107     8.539
   173   7 N        1.939    -0.333    29.490     8.052
   174   6 C        3.088     0.082    26.086     8.372
   175   1 H        0.926     0.045     2.381     2.413
   176   7 N        2.752    -0.110    23.393     7.183
   177   1 H        0.861     0.228     0.973     1.545
   178   6 C        3.109    -0.028    28.549     8.754
   179   1 H        0.925     0.042     2.416     2.431
   180   6 C        2.760     0.207    23.612     7.958
   181   8 O        0.856    -0.370    21.088     6.157
   182   7 N        2.631    -0.374    29.672     8.090
   183   1 H        0.860     0.166     1.296     1.783
   184   6 C        3.789     0.029    20.090     6.383
   185   1 H        0.925     0.044     2.401     2.423
   186   6 C        3.855    -0.027    21.009     6.519
   187   1 H        0.923     0.038     2.482     2.464
   188   6 C        3.754    -0.110    22.663     6.788
   189   1 H        0.924     0.038     2.473     2.459
   190   1 H        0.924     0.042     2.421     2.433
   191   1 H        0.924     0.048     2.348     2.396
   192   6 C        3.804    -0.060    21.660     6.626
   193   1 H        0.925     0.041     2.434     2.439
   194   1 H        0.924     0.027     2.630     2.536
   195   6 C        3.750    -0.108    22.628     6.784
   196   1 H        0.925     0.028     2.610     2.527
   197   1 H        0.925     0.034     2.531     2.488
   198   1 H        0.924     0.047     2.363     2.404
   199   6 C        2.754     0.267    22.485     7.765
   200   8 O        0.861    -0.533    24.531     6.641
   201   7 N        2.694    -0.156    24.376     7.333
   202   1 H        0.860     0.227     0.977     1.549
   203   6 C        3.799     0.038    19.936     6.357
   204   1 H        0.925     0.075     2.026     2.226
   205   6 C        3.854    -0.024    20.961     6.512
   206   1 H        0.925     0.074     2.042     2.235
   207   6 C        3.756    -0.119    22.830     6.813
   208   1 H        0.924     0.059     2.212     2.326
   209   1 H        0.924     0.033     2.541     2.493
   210   1 H        0.924     0.046     2.365     2.405
   211   6 C        3.805    -0.058    21.616     6.619
   212   1 H        0.925     0.030     2.587     2.515
   213   1 H        0.925     0.040     2.448     2.447
   214   6 C        3.749    -0.107    22.613     6.782
   215   1 H        0.925     0.034     2.529     2.487
   216   1 H        0.924     0.044     2.397     2.421
   217   1 H        0.924     0.046     2.372     2.408
   218   6 C        2.765     0.207    23.609     7.957
   219   8 O        0.857    -0.374    21.161     6.167
   220   1 H        0.860     0.197     1.121     1.658
   221   1 H        0.923     0.057     2.234     2.337
   222   1 H        0.860     0.182     1.200     1.716
   223   1 H        0.923     0.063     2.166     2.302
   224   1 H        0.860     0.183     1.195     1.713
   225   1 H        0.923     0.039     2.464     2.455
   226   1 H        0.860     0.164     1.312     1.794
   227   1 H        0.923     0.051     2.310     2.377
   228   1 H        0.860     0.172     1.260     1.758
   229   1 H        0.923     0.078     1.995     2.209
   230   1 H        0.860     0.178     1.223     1.733
   231   1 H        0.923     0.058     2.228     2.334
   232   1 H        0.860     0.174     1.249     1.751
   233   1 H        0.923     0.060     2.201     2.320
   234   1 H        0.860     0.174     1.248     1.750
   235   1 H        0.923     0.074     2.047     2.238

 Mol. C6AA /au·bohr⁶  :     549050.493034
 Mol. C8AA /au·bohr⁸  :   12463564.609494
 Mol. α(0) /au        :       1131.549691


Wiberg/Mayer (AO) data.
largest (>0.10) Wiberg bond orders for each atom

 ---------------------------------------------------------------------------
     #   Z sym  total        # sym  WBO       # sym  WBO       # sym  WBO
 ---------------------------------------------------------------------------
     1   7 N    3.018 --     3 C    1.033     2 H    0.958   220 H    0.946
     2   1 H    0.974 --     1 N    0.958
     3   6 C    3.988 --     1 N    1.033    20 C    0.990     4 H    0.944
                             5 C    0.927
     4   1 H    0.992 --     3 C    0.944
     5   6 C    3.984 --     8 C    1.005     7 H    0.971     6 H    0.958
                             3 C    0.927
     6   1 H    0.993 --     5 C    0.958
     7   1 H    0.996 --     5 C    0.971
     8   6 C    3.985 --     9 C    1.408    18 C    1.407     5 C    1.005
     9   6 C    3.986 --    11 C    1.441     8 C    1.408    10 H    0.968
                            16 C    0.111
    10   1 H    0.998 --     9 C    0.968
    11   6 C    3.982 --     9 C    1.441    13 C    1.376    12 H    0.969
                            18 C    0.106
    12   1 H    1.000 --    11 C    0.969
    13   6 C    3.930 --    11 C    1.376    16 C    1.368    14 O    1.050
    14   8 O    2.017 --    13 C    1.050    15 H    0.808
    15   1 H    0.889 --    14 O    0.808
    16   6 C    3.986 --    18 C    1.447    13 C    1.368    17 H    0.971
                             9 C    0.111
    17   1 H    0.999 --    16 C    0.971
    18   6 C    3.986 --    16 C    1.447     8 C    1.407    19 H    0.965
                            11 C    0.106
    19   1 H    0.997 --    18 C    0.965
    20   6 C    3.886 --    21 O    1.875     3 C    0.990   221 H    0.936
    21   8 O    2.047 --    20 C    1.875
    22   7 N    3.022 --    24 C    1.028    23 H    0.958   222 H    0.952
    23   1 H    0.976 --    22 N    0.958
    24   6 C    3.981 --    22 N    1.028    26 C    0.953    25 H    0.952
                            40 C    0.939
    25   1 H    0.995 --    24 C    0.952
    26   6 C    3.989 --    29 C    1.010    28 H    0.968    27 H    0.961
                            24 C    0.953
    27   1 H    0.994 --    26 C    0.961
    28   1 H    0.998 --    26 C    0.968
    29   6 C    3.986 --    30 C    1.421    38 C    1.403    26 C    1.010
                            34 C    0.106
    30   6 C    3.987 --    32 C    1.433    29 C    1.421    31 H    0.967
                            36 C    0.109
    31   1 H    0.996 --    30 C    0.967
    32   6 C    3.989 --    34 C    1.440    30 C    1.433    33 H    0.970
                            38 C    0.117
    33   1 H    0.997 --    32 C    0.970
    34   6 C    3.990 --    32 C    1.440    36 C    1.439    35 H    0.970
                            29 C    0.106
    35   1 H    0.998 --    34 C    0.970
    36   6 C    3.992 --    38 C    1.444    34 C    1.439    37 H    0.972
                            30 C    0.109
    37   1 H    0.999 --    36 C    0.972
    38   6 C    3.990 --    36 C    1.444    29 C    1.403    39 H    0.969
                            32 C    0.117
    39   1 H    1.000 --    38 C    0.969
    40   6 C    3.928 --    41 O    1.617    42 N    1.293    24 C    0.939
    41   8 O    1.912 --    40 C    1.617    42 N    0.186
    42   7 N    3.455 --    40 C    1.293    44 C    0.987    43 H    0.906
                            41 O    0.186
    43   1 H    0.950 --    42 N    0.906
    44   6 C    3.978 --    52 C    0.989    42 N    0.987    45 H    0.947
                            46 C    0.945
    45   1 H    0.995 --    44 C    0.947
    46   6 C    3.986 --    47 H    0.975    48 H    0.953    44 C    0.945
                            49 C    0.940
    47   1 H    0.999 --    46 C    0.975
    48   1 H    0.997 --    46 C    0.953
    49   6 C    3.935 --    50 O    1.507    51 O    1.456    46 C    0.940
    50   8 O    1.799 --    49 C    1.507    51 O    0.213
    51   8 O    1.806 --    49 C    1.456    50 O    0.213
    52   6 C    3.870 --    53 O    1.872    44 C    0.989   223 H    0.941
    53   8 O    2.036 --    52 C    1.872
    54   7 N    3.029 --    56 C    1.020    55 H    0.955   224 H    0.951
    55   1 H    0.971 --    54 N    0.955
    56   6 C    3.985 --    54 N    1.020    72 C    0.965    57 H    0.963
                            58 C    0.953
    57   1 H    0.997 --    56 C    0.963
    58   6 C    3.991 --    61 C    1.006    59 H    0.971    60 H    0.957
                            56 C    0.953
    59   1 H    0.996 --    58 C    0.971
    60   1 H    0.996 --    58 C    0.957
    61   6 C    3.988 --    70 C    1.411    62 C    1.408    58 C    1.006
                            66 C    0.111
    62   6 C    3.989 --    64 C    1.449    61 C    1.408    63 H    0.966
                            68 C    0.108
    63   1 H    0.998 --    62 C    0.966
    64   6 C    3.990 --    62 C    1.449    66 C    1.430    65 H    0.971
                            70 C    0.113
    65   1 H    0.998 --    64 C    0.971
    66   6 C    3.989 --    68 C    1.441    64 C    1.430    67 H    0.973
                            61 C    0.111
    67   1 H    0.999 --    66 C    0.973
    68   6 C    3.991 --    70 C    1.443    66 C    1.441    69 H    0.972
                            62 C    0.108
    69   1 H    0.999 --    68 C    0.972
    70   6 C    3.990 --    68 C    1.443    61 C    1.411    71 H    0.968
                            64 C    0.113
    71   1 H    0.999 --    70 C    0.968
    72   6 C    3.880 --    73 O    1.900    56 C    0.965   225 H    0.939
    73   8 O    2.045 --    72 C    1.900
    74   7 N    3.027 --    76 C    1.030   226 H    0.957    75 H    0.951
    75   1 H    0.971 --    74 N    0.951
    76   6 C    3.984 --    74 N    1.030    92 C    1.000    77 H    0.943
                            78 C    0.919
    77   1 H    0.995 --    76 C    0.943
    78   6 C    3.987 --    81 C    1.014    80 H    0.971    79 H    0.960
                            76 C    0.919
    79   1 H    0.996 --    78 C    0.960
    80   1 H    0.999 --    78 C    0.971
    81   6 C    3.987 --    82 C    1.412    90 C    1.401    78 C    1.014
                            86 C    0.112
    82   6 C    3.990 --    84 C    1.442    81 C    1.412    83 H    0.967
                            88 C    0.108
    83   1 H    0.999 --    82 C    0.967
    84   6 C    3.988 --    82 C    1.442    86 C    1.437    85 H    0.970
                            90 C    0.110
    85   1 H    0.998 --    84 C    0.970
    86   6 C    3.982 --    84 C    1.437    88 C    1.430    87 H    0.972
                            81 C    0.112
    87   1 H    0.997 --    86 C    0.972
    88   6 C    3.991 --    90 C    1.454    86 C    1.430    89 H    0.972
                            82 C    0.108
    89   1 H    0.998 --    88 C    0.972
    90   6 C    3.990 --    88 C    1.454    81 C    1.401    91 H    0.970
                            84 C    0.110
    91   1 H    0.998 --    90 C    0.970
    92   6 C    3.896 --    93 O    1.866    76 C    1.000   227 H    0.941
    93   8 O    2.044 --    92 C    1.866
    94   7 N    3.016 --    96 C    1.012    95 H    0.956   228 H    0.953
    95   1 H    0.973 --    94 N    0.956
    96   6 C    3.981 --    94 N    1.012    98 C    0.979    97 H    0.955
                           107 C    0.946
    97   1 H    0.998 --    96 C    0.955
    98   6 C    3.994 --   101 C    0.998    96 C    0.979    99 H    0.973
                           100 H    0.969
    99   1 H    0.998 --    98 C    0.973
   100   1 H    0.997 --    98 C    0.969
   101   6 C    3.994 --    98 C    0.998   103 H    0.978   102 H    0.973
                           104 C    0.941
   102   1 H    0.999 --   101 C    0.973
   103   1 H    0.999 --   101 C    0.978
   104   6 C    3.932 --   105 O    1.486   106 O    1.485   101 C    0.941
   105   8 O    1.766 --   104 C    1.486   106 O    0.214
   106   8 O    1.766 --   104 C    1.485   105 O    0.214
   107   6 C    3.938 --   108 O    1.609   109 N    1.300    96 C    0.946
   108   8 O    1.897 --   107 C    1.609   109 N    0.184
   109   7 N    3.465 --   107 C    1.300   111 C    0.990   110 H    0.905
                           108 O    0.184
   110   1 H    0.953 --   109 N    0.905
   111   6 C    3.966 --   109 N    0.990   113 C    0.955   123 C    0.948
                           112 H    0.942
   112   1 H    0.994 --   111 C    0.942
   113   6 C    3.990 --   119 C    1.009   115 C    1.007   114 H    0.962
                           111 C    0.955
   114   1 H    0.996 --   113 C    0.962
   115   6 C    3.994 --   113 C    1.007   116 H    0.986   117 H    0.983
                           118 H    0.981
   116   1 H    0.998 --   115 C    0.986
   117   1 H    0.999 --   115 C    0.983
   118   1 H    0.996 --   115 C    0.981
   119   6 C    3.992 --   113 C    1.009   121 H    0.985   120 H    0.980
                           122 H    0.980
   120   1 H    0.998 --   119 C    0.980
   121   1 H    0.998 --   119 C    0.985
   122   1 H    0.996 --   119 C    0.980
   123   6 C    3.947 --   124 O    1.611   125 N    1.302   111 C    0.948
   124   8 O    1.913 --   123 C    1.611   125 N    0.186
   125   7 N    3.465 --   123 C    1.302   127 C    0.979   126 H    0.919
                           124 O    0.186
   126   1 H    0.957 --   125 N    0.919
   127   6 C    3.960 --   142 C    0.982   125 N    0.979   129 C    0.943
                           128 H    0.941
   128   1 H    0.992 --   127 C    0.941
   129   6 C    3.982 --   131 C    1.005   135 C    0.998   130 H    0.959
                           127 C    0.943
   130   1 H    0.995 --   129 C    0.959
   131   6 C    3.976 --   129 C    1.005   132 H    0.981   134 H    0.976
                           133 H    0.972
   132   1 H    0.997 --   131 C    0.981
   133   1 H    0.996 --   131 C    0.972
   134   1 H    0.997 --   131 C    0.976
   135   6 C    3.991 --   138 C    1.011   129 C    0.998   137 H    0.974
                           136 H    0.973
   136   1 H    0.998 --   135 C    0.973
   137   1 H    0.998 --   135 C    0.974
   138   6 C    3.994 --   135 C    1.011   141 H    0.990   140 H    0.987
                           139 H    0.986
   139   1 H    0.997 --   138 C    0.986
   140   1 H    0.998 --   138 C    0.987
   141   1 H    0.998 --   138 C    0.990
   142   6 C    3.882 --   143 O    1.886   127 C    0.982   229 H    0.936
   143   8 O    2.040 --   142 C    1.886
   144   7 N    3.033 --   146 C    1.037   145 H    0.957   230 H    0.954
   145   1 H    0.972 --   144 N    0.957
   146   6 C    3.985 --   144 N    1.037   163 C    0.977   148 C    0.952
                           147 H    0.922
   147   1 H    0.993 --   146 C    0.922
   148   6 C    3.989 --   151 C    1.007   150 H    0.972   149 H    0.963
                           146 C    0.952
   149   1 H    0.996 --   148 C    0.963
   150   1 H    0.997 --   148 C    0.972
   151   6 C    3.987 --   161 C    1.413   152 C    1.401   148 C    1.007
   152   6 C    3.989 --   154 C    1.457   151 C    1.401   153 H    0.969
                           159 C    0.108
   153   1 H    0.998 --   152 C    0.969
   154   6 C    3.985 --   152 C    1.457   156 C    1.356   155 H    0.968
                           161 C    0.106
   155   1 H    0.998 --   154 C    0.968
   156   6 C    3.931 --   159 C    1.371   154 C    1.356   157 O    1.071
   157   8 O    2.085 --   156 C    1.071   158 H    0.855
   158   1 H    0.879 --   157 O    0.855
   159   6 C    3.987 --   161 C    1.446   156 C    1.371   160 H    0.969
                           152 C    0.108
   160   1 H    0.998 --   159 C    0.969
   161   6 C    3.987 --   159 C    1.446   151 C    1.413   162 H    0.967
                           154 C    0.106
   162   1 H    0.997 --   161 C    0.967
   163   6 C    3.875 --   164 O    1.871   146 C    0.977   231 H    0.934
   164   8 O    2.032 --   163 C    1.871
   165   7 N    3.022 --   167 C    1.011   232 H    0.954   166 H    0.922
   166   1 H    0.968 --   165 N    0.922
   167   6 C    3.985 --   165 N    1.011   180 C    0.982   168 H    0.962
                           169 C    0.948
   168   1 H    0.997 --   167 C    0.962
   169   6 C    3.990 --   172 C    1.010   171 H    0.965   170 H    0.964
                           167 C    0.948
   170   1 H    0.996 --   169 C    0.964
   171   1 H    0.996 --   169 C    0.965
   172   6 C    3.973 --   178 C    1.580   173 N    1.250   169 C    1.010
   173   7 N    2.988 --   174 C    1.544   172 C    1.250   176 N    0.109
   174   6 C    3.958 --   173 N    1.544   176 N    1.281   175 H    0.964
                           178 C    0.111
   175   1 H    0.998 --   174 C    0.964
   176   7 N    3.584 --   174 C    1.281   178 C    1.200   177 H    0.921
                           173 N    0.109
   177   1 H    0.948 --   176 N    0.921
   178   6 C    3.939 --   172 C    1.580   176 N    1.200   179 H    0.959
                           174 C    0.111
   179   1 H    0.998 --   178 C    0.959
   180   6 C    3.871 --   181 O    1.881   167 C    0.982   233 H    0.941
   181   8 O    2.049 --   180 C    1.881
   182   7 N    3.004 --   184 C    1.019   234 H    0.954   183 H    0.949
   183   1 H    0.972 --   182 N    0.949
   184   6 C    3.983 --   182 N    1.019   185 H    0.960   186 C    0.953
                           199 C    0.946
   185   1 H    0.997 --   184 C    0.960
   186   6 C    3.992 --   188 C    1.011   192 C    0.994   187 H    0.964
                           184 C    0.953
   187   1 H    0.998 --   186 C    0.964
   188   6 C    3.995 --   186 C    1.011   190 H    0.980   191 H    0.977
                           189 H    0.973
   189   1 H    0.999 --   188 C    0.973
   190   1 H    0.998 --   188 C    0.980
   191   1 H    0.998 --   188 C    0.977
   192   6 C    3.995 --   195 C    1.016   186 C    0.994   193 H    0.976
                           194 H    0.976
   193   1 H    0.998 --   192 C    0.976
   194   1 H    0.999 --   192 C    0.976
   195   6 C    3.990 --   192 C    1.016   196 H    0.986   198 H    0.984
                           197 H    0.978
   196   1 H    0.999 --   195 C    0.986
   197   1 H    0.999 --   195 C    0.978
   198   1 H    0.997 --   195 C    0.984
   199   6 C    3.941 --   200 O    1.605   201 N    1.317   184 C    0.946
   200   8 O    1.907 --   199 C    1.605   201 N    0.190
   201   7 N    3.492 --   199 C    1.317   203 C    0.970   202 H    0.895
                           200 O    0.190
   202   1 H    0.948 --   201 N    0.895
   203   6 C    3.960 --   201 N    0.970   218 C    0.965   205 C    0.963
                           204 H    0.954
   204   1 H    0.994 --   203 C    0.954
   205   6 C    3.984 --   207 C    1.004   211 C    0.994   203 C    0.963
                           206 H    0.952
   206   1 H    0.994 --   205 C    0.952
Note: The following floating-point exceptions are signalling: IEEE_UNDERFLOW_FLAG IEEE_DENORMAL
normal termination of xtb
   207   6 C    3.992 --   205 C    1.004   210 H    0.986   209 H    0.983
                           208 H    0.978
   208   1 H    0.996 --   207 C    0.978
   209   1 H    0.999 --   207 C    0.983
   210   1 H    0.998 --   207 C    0.986
   211   6 C    3.994 --   214 C    1.019   205 C    0.994   213 H    0.975
                           212 H    0.970
   212   1 H    0.999 --   211 C    0.970
   213   1 H    0.998 --   211 C    0.975
   214   6 C    3.993 --   211 C    1.019   215 H    0.986   216 H    0.983
                           217 H    0.982
   215   1 H    0.998 --   214 C    0.986
   216   1 H    0.998 --   214 C    0.983
   217   1 H    0.998 --   214 C    0.982
   218   6 C    3.862 --   219 O    1.869   203 C    0.965   235 H    0.938
   219   8 O    2.049 --   218 C    1.869
   220   1 H    0.961 --     1 N    0.946
   221   1 H    0.997 --    20 C    0.936
   222   1 H    0.967 --    22 N    0.952
   223   1 H    0.995 --    52 C    0.941
   224   1 H    0.966 --    54 N    0.951
   225   1 H    0.998 --    72 C    0.939
   226   1 H    0.973 --    74 N    0.957
   227   1 H    0.997 --    92 C    0.941
   228   1 H    0.970 --    94 N    0.953
   229   1 H    0.994 --   142 C    0.936
   230   1 H    0.968 --   144 N    0.954
   231   1 H    0.996 --   163 C    0.934
   232   1 H    0.970 --   165 N    0.954
   233   1 H    0.996 --   180 C    0.941
   234   1 H    0.969 --   182 N    0.954
   235   1 H    0.994 --   218 C    0.938
 ---------------------------------------------------------------------------

Topologies differ in total number of bonds
Writing topology from bond orders to xtbtopo.mol

molecular dipole:
                 x           y           z       tot (Debye)
 q only:     -102.361     -78.139    -187.131
   full:     -102.298     -78.970    -186.875     577.505
molecular quadrupole (traceless):
                xx          xy          yy          xz          yz          zz
 q only:     5015.888   -6287.164    8239.605  -14588.933  -11351.011  -13255.493
  q+dip:     5019.790   -6326.566    8164.115  -14565.759  -11440.698  -13183.905
   full:     5022.511   -6326.322    8167.776  -14566.939  -11437.189  -13190.288


           -------------------------------------------------
          | TOTAL ENERGY             -353.286276496616 Eh   |
          | GRADIENT NORM               0.313772335138 Eh/α |
          | HOMO-LUMO GAP               1.192570729946 eV   |
           -------------------------------------------------

------------------------------------------------------------------------
 * finished run on 2026/01/05 at 09:06:43.153     
------------------------------------------------------------------------
 total:
 * wall-time:     0 d,  0 h,  0 min,  1.704 sec
 *  cpu-time:     0 d,  0 h,  0 min, 25.013 sec
 * ratio c/w:    14.676 speedup
 SCF:
 * wall-time:     0 d,  0 h,  0 min,  1.618 sec
 *  cpu-time:     0 d,  0 h,  0 min, 23.724 sec
 * ratio c/w:    14.660 speedup

