      -----------------------------------------------------------      
     |                   =====================                   |     
     |                           x T B                           |     
     |                   =====================                   |     
     |                         S. Grimme                         |     
     |          Mulliken Center for Theoretical Chemistry        |     
     |                    University of Bonn                     |     
      -----------------------------------------------------------      

   * xtb version 6.7.1 (edcfbbe) compiled by 'conda@c0858423619e' on 2025-09-04

   xtb is free software: you can redistribute it and/or modify it under
   the terms of the GNU Lesser General Public License as published by
   the Free Software Foundation, either version 3 of the License, or
   (at your option) any later version.
   
   xtb is distributed in the hope that it will be useful,
   but WITHOUT ANY WARRANTY; without even the implied warranty of
   MERCHANTABILITY or FITNESS FOR A PARTICULAR PURPOSE.  See the
   GNU Lesser General Public License for more details.
   
   Cite this work as:
   * C. Bannwarth, E. Caldeweyher, S. Ehlert, A. Hansen, P. Pracht,
     J. Seibert, S. Spicher, S. Grimme, WIREs Comput. Mol. Sci., 2020, 11,
     e01493. DOI: 10.1002/wcms.1493
   
   for GFN2-xTB:
   * C. Bannwarth, S. Ehlert and S. Grimme., J. Chem. Theory Comput., 2019,
     15, 1652-1671. DOI: 10.1021/acs.jctc.8b01176
   for GFN1-xTB:
   * S. Grimme, C. Bannwarth, P. Shushkov, J. Chem. Theory Comput., 2017,
     13, 1989-2009. DOI: 10.1021/acs.jctc.7b00118
   for GFN0-xTB:
   * P. Pracht, E. Caldeweyher, S. Ehlert, S. Grimme, ChemRxiv, 2019, preprint.
     DOI: 10.26434/chemrxiv.8326202.v1
   for GFN-FF:
   * S. Spicher and S. Grimme, Angew. Chem. Int. Ed., 2020, 59, 15665-15673.
     DOI: 10.1002/anie.202004239
   
   for ALPB and GBSA implicit solvation:
   * S. Ehlert, M. Stahn, S. Spicher, S. Grimme, J. Chem. Theory Comput.,
     2021, 17, 4250-4261. DOI: 10.1021/acs.jctc.1c00471
   
   for ddCOSMO and CPCM-X implicit solvation:
   * M. Stahn, S. Ehlert, S. Grimme, J. Phys. Chem. A,
     2023, XX, XXXX-XXXX. DOI: 10.1021/acs.jpca.3c04382
   
   for DFT-D4:
   * E. Caldeweyher, C. Bannwarth and S. Grimme, J. Chem. Phys., 2017,
     147, 034112. DOI: 10.1063/1.4993215
   * E. Caldeweyher, S. Ehlert, A. Hansen, H. Neugebauer, S. Spicher,
     C. Bannwarth and S. Grimme, J. Chem. Phys., 2019, 150, 154122.
     DOI: 10.1063/1.5090222
   * E. Caldeweyher, J.-M. Mewes, S. Ehlert and S. Grimme, Phys. Chem. Chem. Phys.
     2020, 22, 8499-8512. DOI: 10.1039/D0CP00502A
   
   for sTDA-xTB:
   * S. Grimme and C. Bannwarth, J. Chem. Phys., 2016, 145, 054103.
     DOI: 10.1063/1.4959605
   
   in the mass-spec context:
   * V. Asgeirsson, C. Bauer and S. Grimme, Chem. Sci., 2017, 8, 4879.
     DOI: 10.1039/c7sc00601b
   * J. Koopman and S. Grimme, ACS Omega 2019, 4, 12, 15120-15133.
     DOI: 10.1021/acsomega.9b02011
   
   for metadynamics refer to:
   * S. Grimme, J. Chem. Theory Comput., 2019, 155, 2847-2862
     DOI: 10.1021/acs.jctc.9b00143
   
   for SPH calculations refer to:
   * S. Spicher and S. Grimme, J. Chem. Theory Comput., 2021, 17, 1701-1714
     DOI: 10.1021/acs.jctc.0c01306
   
   for ONIOM refer to:
   * C. Plett, A. Katbashev, S. Ehlert, S. Grimme, M. Bursch,
     Phys. Chem. Chem. Phys., 2023, 25, 17860-17868. DOI: 10.1039/D3CP02178E
   
   for DIPRO refer to:
   * J. Kohn, N. Gildemeister, S. Grimme, D. Fazzi, A. Hansen,
     J. Chem. Phys., 2023, just accepted.
   
   for PTB refer to:
   * S. Grimme, M. Mueller, A. Hansen, J. Chem. Phys., 2023, 158, 124111.
     DOI: 10.1063/5.0137838
   
   with help from (in alphabetical order)
   P. Atkinson, C. Bannwarth, F. Bohle, G. Brandenburg, E. Caldeweyher
   M. Checinski, S. Dohm, S. Ehlert, S. Ehrlich, I. Gerasimov, C. Hölzer
   A. Katbashev, J. Kohn, J. Koopman, C. Lavigne, S. Lehtola, F. März, M. Müller,
   F. Musil, H. Neugebauer, J. Pisarek, C. Plett, P. Pracht, F. Pultar,
   J. Seibert, P. Shushkov, S. Spicher, M. Stahn, M. Steiner, T. Strunk,
   J. Stückrath, T. Rose, and J. Unsleber
   
 * started run on 2026/01/05 at 09:06:45.466     
   ID    Z sym.   atoms
    1    6 C      1, 3-11, 14-16, 18, 20, 21, 24-29, 32
    2    7 N      2, 22
    3    8 O      12, 13, 17, 30, 31
    4   16 S      19, 23
    5    1 H      33-59

           -------------------------------------------------
          |                Calculation Setup                |
           -------------------------------------------------

          program call               : xtb /home/antonio_mesquita/Documentos/gmx_ISA_project/testes_arquivos_primeiros/gmx_ISA_testes/testes_qm_xtb/QM_analysis/QM_FRAMES_CAPPED/frame_200ps/ligand_isolated_200ps.xyz --gfn 2 --alpb water --chrg 1 --etemp 1500 --cycles 1000
          coordinate file            : /home/antonio_mesquita/Documentos/gmx_ISA_project/testes_arquivos_primeiros/gmx_ISA_testes/testes_qm_xtb/QM_analysis/QM_FRAMES_CAPPED/frame_200ps/ligand_isolated_200ps.xyz
          omp threads                :                    16


           -------------------------------------------------
          |                 G F N 2 - x T B                 |
           -------------------------------------------------

        Reference                      10.1021/acs.jctc.8b01176
      * Hamiltonian:
        H0-scaling (s, p, d)           1.850000    2.230000    2.230000
        zeta-weighting                 0.500000
      * Dispersion:
        s8                             2.700000
        a1                             0.520000
        a2                             5.000000
        s9                             5.000000
      * Repulsion:
        kExp                           1.500000    1.000000
        rExp                           1.000000
      * Coulomb:
        alpha                          2.000000
        third order                    shell-resolved
        anisotropic                    true
        a3                             3.000000
        a5                             4.000000
        cn-shift                       1.200000
        cn-exp                         4.000000
        max-rad                        5.000000

      * Solvation model:               ALPB
        Solvent                        water
        Parameter file                 internal GFN2-xTB/ALPB
        Dielectric constant                8.0200E+01
        Reference state                gsolv [1 M gas/solution]
        Free energy shift                  1.0808E-03 Eh       6.7819E-01 kcal/mol
        Temperature                        2.9815E+02 K
        Density                            1.0000E+00 kg/L
        Solvent mass                       1.8000E+01 g/mol
        Interaction kernel             P16
        Born radius scaling (c1)           1.4744E+00
        Born radii integrator          GBOBC
        Born offset                        0.0000E+00 a0       0.0000E+00 AA
        H-bond correction              true
        Ion screening                  false
        Surface tension                    1.0000E-05 Eh       1.5569E+01 dyn/cm
        Grid points                               230 per atom

          ...................................................
          :                      SETUP                      :
          :.................................................:
          :  # basis functions                 167          :
          :  # atomic orbitals                 165          :
          :  # shells                           93          :
          :  # electrons                       170          :
          :  max. iterations                   250          :
          :  Hamiltonian                  GFN2-xTB          :
          :  restarted?                      false          :
          :  GBSA solvation                   true          :
          :  PC potential                    false          :
          :  electronic temp.         1500.0000000     K    :
          :  accuracy                    1.0000000          :
          :  -> integral cutoff          0.2500000E+02      :
          :  -> integral neglect         0.1000000E-07      :
          :  -> SCF convergence          0.1000000E-05 Eh   :
          :  -> wf. convergence          0.1000000E-03 e    :
          :  Broyden damping             0.4000000          :
          :  net charge                          1          :
          :  unpaired electrons                  0          :
          ...................................................

 iter      E             dE          RMSdq      gap      omega  full diag
   1    -96.2388054 -0.962388E+02  0.505E+00    0.88       0.0  T
   2    -96.3143761 -0.755708E-01  0.339E+00    0.23       1.0  T
   3    -96.3315910 -0.172149E-01  0.264E+00    1.60       1.0  T
   4    -96.4244058 -0.928148E-01  0.128E+00    0.67       1.0  T
   5    -96.4061305  0.182753E-01  0.107E+00    0.95       1.0  T
   6    -96.4425859 -0.364554E-01  0.164E-01    0.42       1.0  T
   7    -96.4428132 -0.227297E-03  0.108E-01    0.44       1.0  T
   8    -96.4429397 -0.126539E-03  0.591E-02    0.42       1.0  T
   9    -96.4429733 -0.335222E-04  0.302E-02    0.44       1.0  T
  10    -96.4429865 -0.132874E-04  0.125E-02    0.43       1.0  T
  11    -96.4429853  0.121407E-05  0.123E-02    0.43       1.1  T
  12    -96.4429881 -0.280553E-05  0.479E-03    0.43       2.7  T
  13    -96.4429885 -0.341503E-06  0.115E-03    0.43      11.3  T
  14    -96.4429885  0.652591E-08  0.104E-03    0.43      12.5  T
  15    -96.4429885 -0.189813E-07  0.423E-04    0.43      30.8  T
  16    -96.4429885 -0.360748E-08  0.119E-04    0.43     109.7  T

   *** convergence criteria satisfied after 16 iterations ***

         #    Occupation            Energy/Eh            Energy/eV
      -------------------------------------------------------------
         1        2.0000           -0.8017760             -21.8174
       ...           ...                  ...                  ...
        79        1.9995           -0.4326530             -11.7731
        80        1.9987           -0.4284969             -11.6600
        81        1.9959           -0.4229355             -11.5087
        82        1.9902           -0.4188485             -11.3974
        83        1.9838           -0.4164221             -11.3314
        84        1.9813           -0.4157447             -11.3130
        85        1.7080           -0.4019760             -10.9383 (HOMO)
        86        0.3429           -0.3861014             -10.5064 (LUMO)
        87                         -0.2831328              -7.7044
        88                         -0.2675639              -7.2808
        89                         -0.2556652              -6.9570
        90                         -0.2460012              -6.6940
       ...                                ...                  ...
       165                          1.0598244              28.8393
      -------------------------------------------------------------
                  HL-Gap            0.0158746 Eh            0.4320 eV
             Fermi-level           -0.3935847 Eh          -10.7100 eV

 SCC (total)                   0 d,  0 h,  0 min,  0.206 sec
 SCC setup                      ...        0 min,  0.002 sec (  0.734%)
 Dispersion                     ...        0 min,  0.004 sec (  1.707%)
 classical contributions        ...        0 min,  0.000 sec (  0.107%)
 integral evaluation            ...        0 min,  0.007 sec (  3.203%)
 iterations                     ...        0 min,  0.157 sec ( 76.055%)
 molecular gradient             ...        0 min,  0.037 sec ( 18.076%)
 printout                       ...        0 min,  0.000 sec (  0.106%)

         :::::::::::::::::::::::::::::::::::::::::::::::::::::
         ::                     SUMMARY                     ::
         :::::::::::::::::::::::::::::::::::::::::::::::::::::
         :: total energy             -95.297969165616 Eh    ::
         :: total w/o Gsasa/hb       -95.293541035793 Eh    ::
         :: gradient norm              0.150895944233 Eh/a0 ::
         :: HOMO-LUMO gap              0.431968704874 eV    ::
         ::.................................................::
         :: SCC energy               -96.441694084457 Eh    ::
         :: -> isotropic ES            0.252806600686 Eh    ::
         :: -> anisotropic ES         -0.028891770090 Eh    ::
         :: -> anisotropic XC          0.039751125549 Eh    ::
         :: -> dispersion             -0.069321416378 Eh    ::
         :: -> Gsolv                  -0.100318340712 Eh    ::
         ::    -> Gelec               -0.095890210889 Eh    ::
         ::    -> Gsasa                0.003229913662 Eh    ::
         ::    -> Ghb                 -0.008738803183 Eh    ::
         ::    -> Gshift               0.001080759698 Eh    ::
         :: repulsion energy           1.143724918841 Eh    ::
         :: add. restraining           0.000000000000 Eh    ::
         :: total charge               1.000000000000 e     ::
         :::::::::::::::::::::::::::::::::::::::::::::::::::::

           -------------------------------------------------
          |                Property Printout                |
           -------------------------------------------------

    * Orbital Energies and Occupations

         #    Occupation            Energy/Eh            Energy/eV
      -------------------------------------------------------------
         1        2.0000           -0.8017760             -21.8174
       ...           ...                  ...                  ...
        73        2.0000           -0.4608411             -12.5401
        74        2.0000           -0.4536098             -12.3434
        75        1.9999           -0.4436781             -12.0731
        76        1.9999           -0.4420414             -12.0286
        77        1.9999           -0.4408837             -11.9971
        78        1.9999           -0.4387537             -11.9391
        79        1.9995           -0.4326530             -11.7731
        80        1.9987           -0.4284969             -11.6600
        81        1.9959           -0.4229355             -11.5087
        82        1.9902           -0.4188485             -11.3974
        83        1.9838           -0.4164221             -11.3314
        84        1.9813           -0.4157447             -11.3130
        85        1.7080           -0.4019760             -10.9383 (HOMO)
        86        0.3429           -0.3861014             -10.5064 (LUMO)
        87                         -0.2831328              -7.7044
        88                         -0.2675639              -7.2808
        89                         -0.2556652              -6.9570
        90                         -0.2460012              -6.6940
        91                         -0.2425826              -6.6010
        92                         -0.2420509              -6.5865
        93                         -0.2309306              -6.2839
        94                         -0.1855698              -5.0496
        95                         -0.1787197              -4.8632
        96                         -0.1588478              -4.3225
       ...                                ...                  ...
       165                          1.0598244              28.8393
      -------------------------------------------------------------
                  HL-Gap            0.0158746 Eh            0.4320 eV
             Fermi-level           -0.3935847 Eh          -10.7100 eV

     #   Z          covCN         q      C6AA      α(0)
     1   6 C        2.743     0.278    22.289     7.730
     2   7 N        2.688    -0.080    22.796     7.091
     3   6 C        2.870     0.097    25.835     8.332
     4   6 C        3.676     0.071    19.612     6.345
     5   6 C        3.805    -0.078    21.982     6.675
     6   6 C        2.960     0.040    27.108     8.540
     7   6 C        2.923    -0.036    28.902     8.816
     8   6 C        2.914    -0.033    28.816     8.803
     9   6 C        2.903    -0.027    28.687     8.782
    10   6 C        2.918    -0.027    28.672     8.781
    11   6 C        2.915    -0.033    28.815     8.802
    12   8 O        1.703    -0.241    17.988     5.726
    13   8 O        0.856    -0.431    22.302     6.332
    14   6 C        2.697     0.350    21.064     7.512
    15   6 C        3.746    -0.137    23.214     6.873
    16   6 C        3.853    -0.003    20.598     6.455
    17   8 O        0.857    -0.396    21.591     6.230
    18   6 C        3.788    -0.055    21.570     6.615
    19  16 S        2.051     0.030   139.814    19.901
    20   6 C        3.792    -0.070    21.857     6.658
    21   6 C        3.835     0.024    20.146     6.386
    22   7 N        2.728    -0.266    26.878     7.700
    23  16 S        3.817     1.152   102.412    17.032
    24   6 C        2.953    -0.091    30.277     9.025
    25   6 C        2.982    -0.033    28.821     8.806
    26   6 C        2.913    -0.035    28.881     8.812
    27   6 C        2.960     0.040    27.095     8.538
    28   6 C        2.918    -0.037    28.926     8.820
    29   6 C        2.923    -0.029    28.718     8.788
    30   8 O        0.860    -0.652    27.420     7.021
    31   8 O        0.860    -0.661    27.669     7.053
    32   6 C        3.753    -0.143    23.310     6.885
    33   1 H        0.943     0.280     0.771     1.373
    34   1 H        0.924     0.084     1.938     2.177
    35   1 H        0.923     0.082     1.958     2.188
    36   1 H        0.924     0.132     1.517     1.926
    37   1 H        0.923     0.138     1.477     1.901
    38   1 H        0.924     0.052     2.293     2.368
    39   1 H        0.926     0.061     2.184     2.311
    40   1 H        0.925     0.058     2.227     2.333
    41   1 H        0.925     0.051     2.307     2.375
    42   1 H        0.925     0.062     2.181     2.310
    43   1 H        0.922     0.069     2.102     2.267
    44   1 H        0.925     0.068     2.102     2.268
    45   1 H        0.924     0.069     2.099     2.266
    46   1 H        0.923     0.060     2.203     2.321
    47   1 H        0.925     0.080     1.982     2.202
    48   1 H        0.924     0.123     1.588     1.971
    49   1 H        0.924     0.121     1.604     1.980
    50   1 H        0.924     0.130     1.532     1.936
    51   1 H        0.924     0.124     1.583     1.968
    52   1 H        0.923     0.115     1.652     2.010
    53   1 H        0.925     0.071     2.079     2.255
    54   1 H        0.925     0.094     1.845     2.124
    55   1 H        0.926     0.083     1.948     2.182
    56   1 H        0.925     0.062     2.179     2.309
    57   1 H        0.923     0.075     2.028     2.227
    58   1 H        0.924     0.088     1.902     2.157
    59   1 H        0.924     0.080     1.981     2.201

 Mol. C6AA /au·bohr⁶  :      43347.070040
 Mol. C8AA /au·bohr⁸  :    1117077.895778
 Mol. α(0) /au        :        323.767501


Wiberg/Mayer (AO) data.
largest (>0.10) Wiberg bond orders for each atom

 ---------------------------------------------------------------------------
     #   Z sym  total        # sym  WBO       # sym  WBO       # sym  WBO
 ---------------------------------------------------------------------------
     1   6 C    3.894 --    17 O    1.746     2 N    1.136    21 C    0.933
     2   7 N    3.545 --     3 C    1.317     1 C    1.136    33 H    0.825
                            17 O    0.106
     3   6 C    3.689 --     2 N    1.317     5 C    1.070    14 C    1.029
     4   6 C    3.900 --    15 C    1.012    35 H    0.956    34 H    0.955
                            12 O    0.932
     5   6 C    3.952 --     3 C    1.070     6 C    0.955    36 H    0.937
                            37 H    0.900
     6   6 C    3.942 --    11 C    1.397     7 C    1.384     5 C    0.955
     7   6 C    3.968 --     8 C    1.440     6 C    1.384    38 H    0.966
                            10 C    0.100
     8   6 C    3.976 --     7 C    1.440     9 C    1.430    39 H    0.968
                            11 C    0.108
     9   6 C    3.962 --     8 C    1.430    10 C    1.423    40 H    0.968
    10   6 C    3.971 --    11 C    1.438     9 C    1.423    41 H    0.968
                             7 C    0.100
    11   6 C    3.972 --    10 C    1.438     6 C    1.397    42 H    0.967
                             8 C    0.108
    12   8 O    2.323 --    14 C    1.143     4 C    0.932    13 O    0.188
    13   8 O    1.966 --    14 C    1.661    12 O    0.188
    14   6 C    3.913 --    13 O    1.661    12 O    1.143     3 C    1.029
    15   6 C    3.981 --     4 C    1.012    45 H    0.984    44 H    0.981
                            43 H    0.979
    16   6 C    3.951 --    18 C    1.004    22 N    0.978    46 H    0.963
                            47 H    0.956
    17   8 O    2.005 --     1 C    1.746     2 N    0.106
    18   6 C    3.947 --    16 C    1.004    19 S    0.990    49 H    0.957
                            48 H    0.952
    19  16 S    2.211 --    20 C    1.000    18 C    0.990
    20   6 C    3.948 --    19 S    1.000    21 C    0.984    51 H    0.956
                            50 H    0.948
    21   6 C    3.951 --    20 C    0.984    22 N    0.981     1 C    0.933
                            52 H    0.929
    22   7 N    3.182 --    21 C    0.981    16 C    0.978    23 S    0.890
    23  16 S    4.808 --    30 O    1.550    31 O    1.547    22 N    0.890
                            24 C    0.725
    24   6 C    3.928 --    29 C    1.413    25 C    1.393    23 S    0.725
    25   6 C    3.979 --    26 C    1.459    24 C    1.393    53 H    0.961
                            28 C    0.102
    26   6 C    3.979 --    25 C    1.459    27 C    1.384    54 H    0.960
                            29 C    0.106
    27   6 C    3.974 --    28 C    1.409    26 C    1.384    32 C    1.032
    28   6 C    3.979 --    29 C    1.431    27 C    1.409    55 H    0.961
                            25 C    0.102
    29   6 C    3.981 --    28 C    1.431    24 C    1.413    56 H    0.966
                            26 C    0.106
    30   8 O    1.846 --    23 S    1.550
    31   8 O    1.828 --    23 S    1.547
    32   6 C    3.983 --    27 C    1.032    57 H    0.977    59 H    0.972
                            58 H    0.953
    33   1 H    0.921 --     2 N    0.825
    34   1 H    0.987 --     4 C    0.955
    35   1 H    0.989 --     4 C    0.956
    36   1 H    0.981 --     5 C    0.937
    37   1 H    0.964 --     5 C    0.900
    38   1 H    0.997 --     7 C    0.966
    39   1 H    0.995 --     8 C    0.968
    40   1 H    0.995 --     9 C    0.968
    41   1 H    0.995 --    10 C    0.968
    42   1 H    0.996 --    11 C    0.967
    43   1 H    0.995 --    15 C    0.979
    44   1 H    0.995 --    15 C    0.981
    45   1 H    0.995 --    15 C    0.984
    46   1 H    0.989 --    16 C    0.963
    47   1 H    0.993 --    16 C    0.956
    48   1 H    0.970 --    18 C    0.952
    49   1 H    0.984 --    18 C    0.957
    50   1 H    0.969 --    20 C    0.948
    51   1 H    0.984 --    20 C    0.956
    52   1 H    0.985 --    21 C    0.929
    53   1 H    0.995 --    25 C    0.961
    54   1 H    0.990 --    26 C    0.960
    55   1 H    0.992 --    28 C    0.961
    56   1 H    0.996 --    29 C    0.966
    57   1 H    0.994 --    32 C    0.977
    58   1 H    0.990 --    32 C    0.953
    59   1 H    0.993 --    32 C    0.972
 ---------------------------------------------------------------------------

Topologies differ in total number of bonds
Writing topology from bond orders to xtbtopo.mol

molecular dipole:
                 x           y           z       tot (Debye)
 q only:       65.528      54.187      91.860
   full:       65.232      54.542      91.433     317.362
molecular quadrupole (traceless):
                xx          xy          yy          xz          yz          zz
 q only:    -1433.833    5336.064   -3363.119    9000.693    7530.019    4796.952
  q+dip:    -1451.185    5342.717   -3272.916    8918.382    7538.893    4724.101
   full:    -1449.465    5343.638   -3273.648    8919.141    7540.228    4723.113


           -------------------------------------------------
          | TOTAL ENERGY              -95.297969165616 Eh   |
          | GRADIENT NORM               0.150895944233 Eh/α |
          | HOMO-LUMO GAP               0.431968704874 eV   |
           -------------------------------------------------

------------------------------------------------------------------------
 * finished run on 2026/01/05 at 09:06:45.700     
Note: The following floating-point exceptions are signalling: IEEE_UNDERFLOW_FLAG IEEE_DENORMAL
normal termination of xtb
------------------------------------------------------------------------
 total:
 * wall-time:     0 d,  0 h,  0 min,  0.234 sec
 *  cpu-time:     0 d,  0 h,  0 min,  3.539 sec
 * ratio c/w:    15.094 speedup
 SCF:
 * wall-time:     0 d,  0 h,  0 min,  0.207 sec
 *  cpu-time:     0 d,  0 h,  0 min,  3.123 sec
 * ratio c/w:    15.103 speedup

