      -----------------------------------------------------------      
     |                   =====================                   |     
     |                           x T B                           |     
     |                   =====================                   |     
     |                         S. Grimme                         |     
     |          Mulliken Center for Theoretical Chemistry        |     
     |                    University of Bonn                     |     
      -----------------------------------------------------------      

   * xtb version 6.7.1 (edcfbbe) compiled by 'conda@c0858423619e' on 2025-09-04

   xtb is free software: you can redistribute it and/or modify it under
   the terms of the GNU Lesser General Public License as published by
   the Free Software Foundation, either version 3 of the License, or
   (at your option) any later version.
   
   xtb is distributed in the hope that it will be useful,
   but WITHOUT ANY WARRANTY; without even the implied warranty of
   MERCHANTABILITY or FITNESS FOR A PARTICULAR PURPOSE.  See the
   GNU Lesser General Public License for more details.
   
   Cite this work as:
   * C. Bannwarth, E. Caldeweyher, S. Ehlert, A. Hansen, P. Pracht,
     J. Seibert, S. Spicher, S. Grimme, WIREs Comput. Mol. Sci., 2020, 11,
     e01493. DOI: 10.1002/wcms.1493
   
   for GFN2-xTB:
   * C. Bannwarth, S. Ehlert and S. Grimme., J. Chem. Theory Comput., 2019,
     15, 1652-1671. DOI: 10.1021/acs.jctc.8b01176
   for GFN1-xTB:
   * S. Grimme, C. Bannwarth, P. Shushkov, J. Chem. Theory Comput., 2017,
     13, 1989-2009. DOI: 10.1021/acs.jctc.7b00118
   for GFN0-xTB:
   * P. Pracht, E. Caldeweyher, S. Ehlert, S. Grimme, ChemRxiv, 2019, preprint.
     DOI: 10.26434/chemrxiv.8326202.v1
   for GFN-FF:
   * S. Spicher and S. Grimme, Angew. Chem. Int. Ed., 2020, 59, 15665-15673.
     DOI: 10.1002/anie.202004239
   
   for ALPB and GBSA implicit solvation:
   * S. Ehlert, M. Stahn, S. Spicher, S. Grimme, J. Chem. Theory Comput.,
     2021, 17, 4250-4261. DOI: 10.1021/acs.jctc.1c00471
   
   for ddCOSMO and CPCM-X implicit solvation:
   * M. Stahn, S. Ehlert, S. Grimme, J. Phys. Chem. A,
     2023, XX, XXXX-XXXX. DOI: 10.1021/acs.jpca.3c04382
   
   for DFT-D4:
   * E. Caldeweyher, C. Bannwarth and S. Grimme, J. Chem. Phys., 2017,
     147, 034112. DOI: 10.1063/1.4993215
   * E. Caldeweyher, S. Ehlert, A. Hansen, H. Neugebauer, S. Spicher,
     C. Bannwarth and S. Grimme, J. Chem. Phys., 2019, 150, 154122.
     DOI: 10.1063/1.5090222
   * E. Caldeweyher, J.-M. Mewes, S. Ehlert and S. Grimme, Phys. Chem. Chem. Phys.
     2020, 22, 8499-8512. DOI: 10.1039/D0CP00502A
   
   for sTDA-xTB:
   * S. Grimme and C. Bannwarth, J. Chem. Phys., 2016, 145, 054103.
     DOI: 10.1063/1.4959605
   
   in the mass-spec context:
   * V. Asgeirsson, C. Bauer and S. Grimme, Chem. Sci., 2017, 8, 4879.
     DOI: 10.1039/c7sc00601b
   * J. Koopman and S. Grimme, ACS Omega 2019, 4, 12, 15120-15133.
     DOI: 10.1021/acsomega.9b02011
   
   for metadynamics refer to:
   * S. Grimme, J. Chem. Theory Comput., 2019, 155, 2847-2862
     DOI: 10.1021/acs.jctc.9b00143
   
   for SPH calculations refer to:
   * S. Spicher and S. Grimme, J. Chem. Theory Comput., 2021, 17, 1701-1714
     DOI: 10.1021/acs.jctc.0c01306
   
   for ONIOM refer to:
   * C. Plett, A. Katbashev, S. Ehlert, S. Grimme, M. Bursch,
     Phys. Chem. Chem. Phys., 2023, 25, 17860-17868. DOI: 10.1039/D3CP02178E
   
   for DIPRO refer to:
   * J. Kohn, N. Gildemeister, S. Grimme, D. Fazzi, A. Hansen,
     J. Chem. Phys., 2023, just accepted.
   
   for PTB refer to:
   * S. Grimme, M. Mueller, A. Hansen, J. Chem. Phys., 2023, 158, 124111.
     DOI: 10.1063/5.0137838
   
   with help from (in alphabetical order)
   P. Atkinson, C. Bannwarth, F. Bohle, G. Brandenburg, E. Caldeweyher
   M. Checinski, S. Dohm, S. Ehlert, S. Ehrlich, I. Gerasimov, C. Hölzer
   A. Katbashev, J. Kohn, J. Koopman, C. Lavigne, S. Lehtola, F. März, M. Müller,
   F. Musil, H. Neugebauer, J. Pisarek, C. Plett, P. Pracht, F. Pultar,
   J. Seibert, P. Shushkov, S. Spicher, M. Stahn, M. Steiner, T. Strunk,
   J. Stückrath, T. Rose, and J. Unsleber
   
 * started run on 2026/01/05 at 09:07:28.194     
   ID    Z sym.   atoms
    1    7 N      1, 21, 41, 62, 70, 73, 79, 98
    2    1 H      2, 4, 6, 7, 10, 12, 14, 16, 18, 22, 24, 26, 27, 30, 32, 34,
                  36, 38, 42, 44, 46, 47, 50, 52, 55, 57, 59, 63, 65, 67, 68,
                  72, 74, 76, 80, 82, 84, 86-88, 90, 91, 93-95, 99, 101, 103,
                  105-107, 109, 110, 112-114, 117-126
    3    6 C      3, 5, 8, 9, 11, 13, 15, 17, 19, 23, 25, 28, 29, 31, 33, 35,
                  37, 39, 43, 45, 48, 49, 51, 53, 56, 58, 60, 64, 66, 69, 71,
                  75, 77, 81, 83, 85, 89, 92, 96, 100, 102, 104, 108, 111, 115
    4    8 O      20, 40, 54, 61, 78, 97, 116

           -------------------------------------------------
          |                Calculation Setup                |
           -------------------------------------------------

          program call               : xtb /home/antonio_mesquita/Documentos/gmx_ISA_project/testes_arquivos_primeiros/gmx_ISA_testes/testes_qm_xtb/QM_analysis/QM_FRAMES_CAPPED/frame_4000ps/residues_pocket_capped_4000ps.xyz --gfn 2 --alpb water --chrg 0 --etemp 1500 --cycles 1000
          coordinate file            : /home/antonio_mesquita/Documentos/gmx_ISA_project/testes_arquivos_primeiros/gmx_ISA_testes/testes_qm_xtb/QM_analysis/QM_FRAMES_CAPPED/frame_4000ps/residues_pocket_capped_4000ps.xyz
          omp threads                :                    16


molecular fragmentation (1/2 indicates fragments):
111111111111111111112222222222222222222222222222222222222222222222222222
222222222222222222222222222222222222222222221122222222
# atoms in fragment 1/2:    22   104
 fragment masses (1/2) :      149.19      681.87
CMA distance (Bohr)    :  13.039
constraining FC (au)   :  0.0500

           -------------------------------------------------
          |                 G F N 2 - x T B                 |
           -------------------------------------------------

        Reference                      10.1021/acs.jctc.8b01176
      * Hamiltonian:
        H0-scaling (s, p, d)           1.850000    2.230000    2.230000
        zeta-weighting                 0.500000
      * Dispersion:
        s8                             2.700000
        a1                             0.520000
        a2                             5.000000
        s9                             5.000000
      * Repulsion:
        kExp                           1.500000    1.000000
        rExp                           1.000000
      * Coulomb:
        alpha                          2.000000
        third order                    shell-resolved
        anisotropic                    true
        a3                             3.000000
        a5                             4.000000
        cn-shift                       1.200000
        cn-exp                         4.000000
        max-rad                        5.000000

      * Solvation model:               ALPB
        Solvent                        water
        Parameter file                 internal GFN2-xTB/ALPB
        Dielectric constant                8.0200E+01
        Reference state                gsolv [1 M gas/solution]
        Free energy shift                  1.0808E-03 Eh       6.7819E-01 kcal/mol
        Temperature                        2.9815E+02 K
        Density                            1.0000E+00 kg/L
        Solvent mass                       1.8000E+01 g/mol
        Interaction kernel             P16
        Born radius scaling (c1)           1.4744E+00
        Born radii integrator          GBOBC
        Born offset                        0.0000E+00 a0       0.0000E+00 AA
        H-bond correction              true
        Ion screening                  false
        Surface tension                    1.0000E-05 Eh       1.5569E+01 dyn/cm
        Grid points                               230 per atom

          ...................................................
          :                      SETUP                      :
          :.................................................:
          :  # basis functions                 306          :
          :  # atomic orbitals                 306          :
          :  # shells                          186          :
          :  # electrons                       328          :
          :  max. iterations                   250          :
          :  Hamiltonian                  GFN2-xTB          :
          :  restarted?                      false          :
          :  GBSA solvation                   true          :
          :  PC potential                    false          :
          :  electronic temp.         1500.0000000     K    :
          :  accuracy                    1.0000000          :
          :  -> integral cutoff          0.2500000E+02      :
          :  -> integral neglect         0.1000000E-07      :
          :  -> SCF convergence          0.1000000E-05 Eh   :
          :  -> wf. convergence          0.1000000E-03 e    :
          :  Broyden damping             0.4000000          :
          :  net charge                          0          :
          :  unpaired electrons                  0          :
          ...................................................

 iter      E             dE          RMSdq      gap      omega  full diag
   1   -183.7155667 -0.183716E+03  0.421E+00    1.89       0.0  T
   2   -184.0048510 -0.289284E+00  0.222E+00    1.08       1.0  T
   3   -184.0115638 -0.671280E-02  0.121E+00    1.71       1.0  T
   4   -184.0382621 -0.266982E-01  0.212E-01    1.16       1.0  T
   5   -184.0411568 -0.289476E-02  0.848E-02    1.27       1.0  T
   6   -184.0412956 -0.138785E-03  0.473E-02    1.25       1.0  T
   7   -184.0413600 -0.644129E-04  0.184E-02    1.25       1.0  T
   8   -184.0413656 -0.556247E-05  0.585E-03    1.25       1.5  T
   9   -184.0413664 -0.844346E-06  0.291E-03    1.25       3.1  T
  10   -184.0413666 -0.219941E-06  0.133E-03    1.25       6.7  T
  11   -184.0413667 -0.389325E-07  0.511E-04    1.25      17.4  T
  12   -184.0413667 -0.583105E-08  0.197E-04    1.25      45.2  T

   *** convergence criteria satisfied after 12 iterations ***

         #    Occupation            Energy/Eh            Energy/eV
      -------------------------------------------------------------
         1        2.0000           -0.7275170             -19.7967
       ...           ...                  ...                  ...
       158        2.0000           -0.3760969             -10.2341
       159        2.0000           -0.3656091              -9.9487
       160        1.9985           -0.3479812              -9.4690
       161        1.9970           -0.3447691              -9.3816
       162        1.9969           -0.3446048              -9.3772
       163        1.9960           -0.3434042              -9.3445
       164        1.9848           -0.3370791              -9.1724 (HOMO)
       165        0.0164           -0.2911730              -7.9232 (LUMO)
       166        0.0033           -0.2834718              -7.7137
       167        0.0030           -0.2831419              -7.7047
       168        0.0023           -0.2818187              -7.6687
       169        0.0020           -0.2811625              -7.6508
       ...           ...                  ...                  ...
       306                          0.6350022              17.2793
      -------------------------------------------------------------
                  HL-Gap            0.0459061 Eh            1.2492 eV
             Fermi-level           -0.3139469 Eh           -8.5429 eV

 SCC (total)                   0 d,  0 h,  0 min,  0.515 sec
 SCC setup                      ...        0 min,  0.004 sec (  0.744%)
 Dispersion                     ...        0 min,  0.010 sec (  1.945%)
 classical contributions        ...        0 min,  0.001 sec (  0.111%)
 integral evaluation            ...        0 min,  0.020 sec (  3.826%)
 iterations                     ...        0 min,  0.380 sec ( 73.731%)
 molecular gradient             ...        0 min,  0.097 sec ( 18.761%)
 printout                       ...        0 min,  0.005 sec (  0.876%)

         :::::::::::::::::::::::::::::::::::::::::::::::::::::
         ::                     SUMMARY                     ::
         :::::::::::::::::::::::::::::::::::::::::::::::::::::
         :: total energy            -181.594105370363 Eh    ::
         :: total w/o Gsasa/hb      -181.573391601372 Eh    ::
         :: gradient norm              0.222809388745 Eh/a0 ::
         :: HOMO-LUMO gap              1.249167777571 eV    ::
         ::.................................................::
         :: SCC energy              -184.034735100124 Eh    ::
         :: -> isotropic ES            0.315840310373 Eh    ::
         :: -> anisotropic ES          0.033636076774 Eh    ::
         :: -> anisotropic XC          0.099402066073 Eh    ::
         :: -> dispersion             -0.127795946500 Eh    ::
         :: -> Gsolv                  -0.064274861403 Eh    ::
         ::    -> Gelec               -0.043561092412 Eh    ::
         ::    -> Gsasa                0.000019692333 Eh    ::
         ::    -> Ghb                 -0.021814221021 Eh    ::
         ::    -> Gshift               0.001080759698 Eh    ::
         :: repulsion energy           2.440629729761 Eh    ::
         :: add. restraining           0.000000000000 Eh    ::
         :: total charge               0.000000000000 e     ::
         :::::::::::::::::::::::::::::::::::::::::::::::::::::

           -------------------------------------------------
          |                Property Printout                |
           -------------------------------------------------

    * Orbital Energies and Occupations

         #    Occupation            Energy/Eh            Energy/eV
      -------------------------------------------------------------
         1        2.0000           -0.7275170             -19.7967
       ...           ...                  ...                  ...
       152        2.0000           -0.3962847             -10.7835
       153        2.0000           -0.3960251             -10.7764
       154        2.0000           -0.3950125             -10.7488
       155        2.0000           -0.3923228             -10.6756
       156        2.0000           -0.3910695             -10.6415
       157        2.0000           -0.3794923             -10.3265
       158        2.0000           -0.3760969             -10.2341
       159        2.0000           -0.3656091              -9.9487
       160        1.9985           -0.3479812              -9.4690
       161        1.9970           -0.3447691              -9.3816
       162        1.9969           -0.3446048              -9.3772
       163        1.9960           -0.3434042              -9.3445
       164        1.9848           -0.3370791              -9.1724 (HOMO)
       165        0.0164           -0.2911730              -7.9232 (LUMO)
       166        0.0033           -0.2834718              -7.7137
       167        0.0030           -0.2831419              -7.7047
       168        0.0023           -0.2818187              -7.6687
       169        0.0020           -0.2811625              -7.6508
       170                         -0.2272793              -6.1846
       171                         -0.2268441              -6.1727
       172                         -0.2254977              -6.1361
       173                         -0.2229624              -6.0671
       174                         -0.2198281              -5.9818
       175                         -0.2170565              -5.9064
       ...                                ...                  ...
       306                          0.6350022              17.2793
      -------------------------------------------------------------
                  HL-Gap            0.0459061 Eh            1.2492 eV
             Fermi-level           -0.3139469 Eh           -8.5429 eV

     #   Z          covCN         q      C6AA      α(0)
     1   7 N        2.632    -0.376    29.724     8.097
     2   1 H        0.860     0.162     1.323     1.802
     3   6 C        3.784     0.042    19.889     6.352
     4   1 H        0.924     0.080     1.981     2.201
     5   6 C        3.810    -0.076    21.947     6.668
     6   1 H        0.924     0.065     2.140     2.288
     7   1 H        0.924     0.054     2.276     2.359
     8   6 C        2.965     0.008    27.839     8.654
     9   6 C        2.918    -0.044    29.087     8.844
    10   1 H        0.926     0.045     2.385     2.415
    11   6 C        2.905    -0.039    28.979     8.827
    12   1 H        0.926     0.044     2.401     2.423
    13   6 C        2.920    -0.043    29.069     8.841
    14   1 H        0.926     0.036     2.507     2.476
    15   6 C        2.908    -0.038    28.955     8.823
    16   1 H        0.926     0.037     2.483     2.464
    17   6 C        2.913    -0.039    28.969     8.826
    18   1 H        0.925     0.018     2.758     2.597
    19   6 C        2.758     0.211    23.531     7.944
    20   8 O        0.857    -0.388    21.449     6.209
    21   7 N        2.640    -0.371    29.575     8.077
    22   1 H        0.860     0.159     1.341     1.814
    23   6 C        3.786     0.040    19.924     6.358
    24   1 H        0.924     0.072     2.059     2.244
    25   6 C        3.816    -0.072    21.869     6.656
    26   1 H        0.925     0.048     2.345     2.395
    27   1 H        0.925     0.075     2.033     2.230
    28   6 C        2.962     0.005    27.901     8.664
    29   6 C        2.916    -0.043    29.068     8.841
    30   1 H        0.926     0.034     2.532     2.488
    31   6 C        2.904    -0.033    28.813     8.802
    32   1 H        0.925     0.041     2.431     2.438
    33   6 C        2.916    -0.039    28.970     8.826
    34   1 H        0.926     0.038     2.473     2.459
    35   6 C        2.908    -0.041    29.009     8.832
    36   1 H        0.926     0.041     2.439     2.442
    37   6 C        2.915    -0.046    29.132     8.851
    38   1 H        0.925     0.042     2.422     2.434
    39   6 C        2.757     0.207    23.599     7.955
    40   8 O        0.856    -0.382    21.318     6.190
    41   7 N        2.631    -0.377    29.735     8.099
    42   1 H        0.860     0.163     1.318     1.799
    43   6 C        3.786     0.043    19.863     6.348
    44   1 H        0.925     0.083     1.953     2.185
    45   6 C        3.811    -0.067    21.769     6.641
    46   1 H        0.924     0.054     2.266     2.354
    47   1 H        0.924     0.051     2.303     2.373
    48   6 C        2.959    -0.003    28.106     8.696
    49   6 C        2.913    -0.047    29.169     8.856
    50   1 H        0.925     0.047     2.358     2.401
    51   6 C        2.908    -0.060    29.481     8.903
    52   1 H        0.926     0.045     2.386     2.416
    53   6 C        2.838     0.142    24.908     8.179
    54   8 O        1.660    -0.460    22.055     6.340
    55   1 H        0.806     0.369     0.545     1.159
    56   6 C        2.905    -0.075    29.868     8.961
    57   1 H        0.926     0.049     2.334     2.389
    58   6 C        2.914    -0.042    29.034     8.836
    59   1 H        0.925     0.038     2.472     2.459
    60   6 C        2.760     0.200    23.735     7.978
    61   8 O        0.858    -0.397    21.617     6.234
    62   7 N        2.638    -0.352    29.073     8.008
    63   1 H        0.860     0.154     1.372     1.835
    64   6 C        3.789     0.053    19.707     6.323
    65   1 H        0.924     0.054     2.276     2.359
    66   6 C        3.809    -0.071    21.848     6.654
    67   1 H        0.925     0.064     2.150     2.293
    68   1 H        0.924     0.061     2.189     2.314
    69   6 C        3.025     0.041    27.065     8.534
    70   7 N        1.959    -0.327    29.294     8.026
    71   6 C        2.986     0.081    26.180     8.393
    72   1 H        0.925     0.049     2.337     2.391
    73   7 N        2.790    -0.109    23.372     7.180
    74   1 H        0.860     0.221     1.003     1.569
    75   6 C        3.038    -0.033    28.785     8.800
    76   1 H        0.925     0.040     2.449     2.447
    77   6 C        2.760     0.214    23.468     7.933
    78   8 O        0.856    -0.369    21.075     6.155
    79   7 N        2.640    -0.383    29.909     8.122
    80   1 H        0.860     0.160     1.336     1.811
    81   6 C        3.788     0.029    20.106     6.386
    82   1 H        0.923     0.053     2.281     2.362
    83   6 C        3.863    -0.022    20.917     6.504
    84   1 H        0.924     0.048     2.339     2.392
    85   6 C        3.760    -0.101    22.483     6.760
    86   1 H        0.925     0.042     2.429     2.437
    87   1 H        0.925     0.039     2.468     2.457
    88   1 H        0.925     0.028     2.610     2.527
    89   6 C        3.812    -0.056    21.562     6.610
    90   1 H        0.925     0.027     2.628     2.535
    91   1 H        0.924     0.026     2.648     2.545
    92   6 C        3.750    -0.106    22.599     6.780
    93   1 H        0.925     0.036     2.507     2.476
    94   1 H        0.924     0.032     2.553     2.499
    95   1 H        0.923     0.039     2.457     2.451
    96   6 C        2.750     0.268    22.476     7.763
    97   8 O        0.860    -0.530    24.448     6.629
    98   7 N        2.689    -0.160    24.466     7.346
    99   1 H        0.860     0.225     0.989     1.558
   100   6 C        3.794     0.034    20.010     6.370
   101   1 H        0.925     0.076     2.019     2.222
   102   6 C        3.859    -0.017    20.835     6.491
   103   1 H        0.924     0.058     2.226     2.333
   104   6 C        3.752    -0.121    22.876     6.821
   105   1 H        0.925     0.068     2.109     2.271
   106   1 H        0.925     0.038     2.475     2.460
   107   1 H        0.924     0.038     2.469     2.457
   108   6 C        3.802    -0.055    21.553     6.610
   109   1 H        0.925     0.023     2.681     2.561
   110   1 H        0.924     0.038     2.470     2.458
   111   6 C        3.749    -0.110    22.670     6.791
   112   1 H        0.924     0.039     2.468     2.457
   113   1 H        0.924     0.048     2.344     2.394
   114   1 H        0.925     0.051     2.303     2.373
   115   6 C        2.763     0.204    23.658     7.965
   116   8 O        0.856    -0.372    21.126     6.162
   117   1 H        0.860     0.183     1.199     1.715
   118   1 H        0.923     0.062     2.172     2.305
   119   1 H        0.860     0.173     1.253     1.754
   120   1 H        0.923     0.050     2.325     2.384
   121   1 H        0.860     0.173     1.257     1.756
   122   1 H        0.923     0.073     2.058     2.243
   123   1 H        0.860     0.178     1.227     1.735
   124   1 H        0.923     0.061     2.183     2.311
   125   1 H        0.860     0.177     1.231     1.738
   126   1 H        0.923     0.073     2.055     2.242

 Mol. C6AA /au·bohr⁶  :     154878.950435
 Mol. C8AA /au·bohr⁸  :    3527904.653585
 Mol. α(0) /au        :        605.253095


Wiberg/Mayer (AO) data.
largest (>0.10) Wiberg bond orders for each atom

 ---------------------------------------------------------------------------
     #   Z sym  total        # sym  WBO       # sym  WBO       # sym  WBO
 ---------------------------------------------------------------------------
     1   7 N    3.020 --     3 C    1.026     2 H    0.958   117 H    0.953
     2   1 H    0.974 --     1 N    0.958
     3   6 C    3.984 --     1 N    1.026    19 C    0.988     4 H    0.943
                             5 C    0.934
     4   1 H    0.993 --     3 C    0.943
     5   6 C    3.990 --     8 C    1.011     6 H    0.966     7 H    0.965
                             3 C    0.934
     6   1 H    0.995 --     5 C    0.966
     7   1 H    0.997 --     5 C    0.965
     8   6 C    3.986 --     9 C    1.424    17 C    1.396     5 C    1.011
                            13 C    0.107
     9   6 C    3.988 --    11 C    1.427     8 C    1.424    10 H    0.968
                            15 C    0.110
    10   1 H    0.998 --     9 C    0.968
    11   6 C    3.990 --    13 C    1.452     9 C    1.427    12 H    0.971
                            17 C    0.112
    12   1 H    0.998 --    11 C    0.971
    13   6 C    3.988 --    11 C    1.452    15 C    1.421    14 H    0.972
                             8 C    0.107
    14   1 H    0.998 --    13 C    0.972
    15   6 C    3.990 --    17 C    1.459    13 C    1.421    16 H    0.971
                             9 C    0.110
    16   1 H    0.998 --    15 C    0.971
    17   6 C    3.991 --    15 C    1.459     8 C    1.396    18 H    0.969
                            11 C    0.112
    18   1 H    1.000 --    17 C    0.969
    19   6 C    3.878 --    20 O    1.886     3 C    0.988   118 H    0.936
    20   8 O    2.034 --    19 C    1.886
    21   7 N    3.021 --    23 C    1.022    22 H    0.961   119 H    0.955
    22   1 H    0.975 --    21 N    0.961
    23   6 C    3.985 --    21 N    1.022    39 C    0.986    25 C    0.942
                            24 H    0.942
    24   1 H    0.995 --    23 C    0.942
    25   6 C    3.987 --    28 C    1.007    26 H    0.969    27 H    0.966
                            23 C    0.942
    26   1 H    0.997 --    25 C    0.969
    27   1 H    0.994 --    25 C    0.966
    28   6 C    3.987 --    37 C    1.416    29 C    1.409    25 C    1.007
                            33 C    0.109
    29   6 C    3.990 --    31 C    1.448    28 C    1.409    30 H    0.969
                            35 C    0.111
    30   1 H    0.999 --    29 C    0.969
    31   6 C    3.990 --    29 C    1.448    33 C    1.432    32 H    0.970
                            37 C    0.111
    32   1 H    0.998 --    31 C    0.970
    33   6 C    3.988 --    35 C    1.441    31 C    1.432    34 H    0.972
                            28 C    0.109
    34   1 H    0.998 --    33 C    0.972
    35   6 C    3.989 --    33 C    1.441    37 C    1.440    36 H    0.972
                            29 C    0.111
    36   1 H    0.998 --    35 C    0.972
    37   6 C    3.988 --    35 C    1.440    28 C    1.416    38 H    0.969
                            31 C    0.111
    38   1 H    0.998 --    37 C    0.969
    39   6 C    3.884 --    40 O    1.884    23 C    0.986   120 H    0.936
    40   8 O    2.042 --    39 C    1.884
    41   7 N    3.022 --    43 C    1.028    42 H    0.958   121 H    0.957
    42   1 H    0.974 --    41 N    0.958
    43   6 C    3.984 --    41 N    1.028    60 C    0.981    45 C    0.948
                            44 H    0.936
    44   1 H    0.993 --    43 C    0.936
    45   6 C    3.991 --    48 C    1.007    47 H    0.968    46 H    0.967
                            43 C    0.948
    46   1 H    0.997 --    45 C    0.967
    47   1 H    0.997 --    45 C    0.968
    48   6 C    3.987 --    58 C    1.423    49 C    1.388    45 C    1.007
    49   6 C    3.989 --    51 C    1.470    48 C    1.388    50 H    0.968
                            56 C    0.107
    50   1 H    0.997 --    49 C    0.968
    51   6 C    3.986 --    49 C    1.470    53 C    1.350    52 H    0.966
                            58 C    0.104
    52   1 H    0.998 --    51 C    0.966
    53   6 C    3.934 --    56 C    1.381    51 C    1.350    54 O    1.069
    54   8 O    2.067 --    53 C    1.069    55 H    0.843
    55   1 H    0.863 --    54 O    0.843
    56   6 C    3.986 --    58 C    1.437    53 C    1.381    57 H    0.967
                            49 C    0.107
    57   1 H    0.997 --    56 C    0.967
    58   6 C    3.988 --    56 C    1.437    48 C    1.423    59 H    0.967
                            51 C    0.104
    59   1 H    0.999 --    58 C    0.967
    60   6 C    3.872 --    61 O    1.877    43 C    0.981   122 H    0.936
    61   8 O    2.026 --    60 C    1.877
    62   7 N    3.039 --    64 C    1.009    63 H    0.952   123 H    0.949
    63   1 H    0.976 --    62 N    0.952
    64   6 C    3.982 --    62 N    1.009    77 C    0.972    65 H    0.963
                            66 C    0.959
    65   1 H    0.997 --    64 C    0.963
    66   6 C    3.993 --    69 C    1.009    68 H    0.966    64 C    0.959
                            67 H    0.956
    67   1 H    0.996 --    66 C    0.956
    68   1 H    0.996 --    66 C    0.966
    69   6 C    3.974 --    75 C    1.563    70 N    1.270    66 C    1.009
    70   7 N    2.989 --    71 C    1.519    69 C    1.270    73 N    0.104
    71   6 C    3.955 --    70 N    1.519    73 N    1.290    72 H    0.964
                            75 C    0.122
    72   1 H    0.997 --    71 C    0.964
    73   7 N    3.585 --    71 C    1.290    75 C    1.206    74 H    0.919
                            70 N    0.104
    74   1 H    0.951 --    73 N    0.919
    75   6 C    3.938 --    69 C    1.563    73 N    1.206    76 H    0.965
                            71 C    0.122
    76   1 H    0.998 --    75 C    0.965
    77   6 C    3.873 --    78 O    1.886    64 C    0.972   124 H    0.939
    78   8 O    2.058 --    77 C    1.886
    79   7 N    2.998 --    81 C    1.016   125 H    0.953    80 H    0.947
    80   1 H    0.974 --    79 N    0.947
    81   6 C    3.981 --    79 N    1.016    82 H    0.956    83 C    0.954
                            96 C    0.949
    82   1 H    0.996 --    81 C    0.956
    83   6 C    3.990 --    85 C    1.008    89 C    0.993    84 H    0.962
                            81 C    0.954
    84   1 H    0.997 --    83 C    0.962
    85   6 C    3.993 --    83 C    1.008    88 H    0.983    86 H    0.982
                            87 H    0.980
    86   1 H    0.998 --    85 C    0.982
    87   1 H    0.998 --    85 C    0.980
    88   1 H    0.999 --    85 C    0.983
    89   6 C    3.994 --    92 C    1.019    83 C    0.993    90 H    0.975
                            91 H    0.974
    90   1 H    0.999 --    89 C    0.975
    91   1 H    0.999 --    89 C    0.974
    92   6 C    3.995 --    89 C    1.019    94 H    0.987    93 H    0.987
                            95 H    0.986
    93   1 H    0.998 --    92 C    0.987
    94   1 H    0.999 --    92 C    0.987
    95   1 H    0.998 --    92 C    0.986
    96   6 C    3.945 --    97 O    1.600    98 N    1.320    81 C    0.949
    97   8 O    1.909 --    96 C    1.600    98 N    0.194
    98   7 N    3.483 --    96 C    1.320   100 C    0.974    99 H    0.897
                            97 O    0.194
    99   1 H    0.950 --    98 N    0.897
   100   6 C    3.965 --   115 C    0.981    98 N    0.974   101 H    0.955
                           102 C    0.944
   101   1 H    0.994 --   100 C    0.955
   102   6 C    3.984 --   104 C    1.000   108 C    0.995   103 H    0.957
                           100 C    0.944
   103   1 H    0.997 --   102 C    0.957
   104   6 C    3.992 --   102 C    1.000   106 H    0.988   107 H    0.987
                           105 H    0.979
   105   1 H    0.995 --   104 C    0.979
   106   1 H    0.998 --   104 C    0.988
   107   1 H    0.998 --   104 C    0.987
   108   6 C    3.995 --   111 C    1.012   102 C    0.995   110 H    0.979
                           109 H    0.975
   109   1 H    0.999 --   108 C    0.975
   110   1 H    0.998 --   108 C    0.979
   111   6 C    3.992 --   108 C    1.012   112 H    0.987   114 H    0.986
                           113 H    0.982
   112   1 H    0.998 --   111 C    0.987
   113   1 H    0.998 --   111 C    0.982
   114   1 H    0.997 --   111 C    0.986
   115   6 C    3.870 --   116 O    1.884   100 C    0.981   126 H    0.938
   116   8 O    2.037 --   115 C    1.884
   117   1 H    0.967 --     1 N    0.953
   118   1 H    0.996 --    19 C    0.936
   119   1 H    0.970 --    21 N    0.955
   120   1 H    0.997 --    39 C    0.936
   121   1 H    0.970 --    41 N    0.957
   122   1 H    0.994 --    60 C    0.936
   123   1 H    0.968 --    62 N    0.949
   124   1 H    0.996 --    77 C    0.939
   125   1 H    0.968 --    79 N    0.953
   126   1 H    0.994 --   115 C    0.938
 ---------------------------------------------------------------------------

Topologies differ in total number of bonds
Writing topology from bond orders to xtbtopo.mol

molecular dipole:
                 x           y           z       tot (Debye)
 q only:        1.064       2.013      -0.049
   full:        0.909       2.505       0.126       6.782
molecular quadrupole (traceless):
                xx          xy          yy          xz          yz          zz
 q only:       77.038     187.145     -66.284     136.257     234.519     -10.754
Note: The following floating-point exceptions are signalling: IEEE_UNDERFLOW_FLAG IEEE_DENORMAL
normal termination of xtb
  q+dip:       37.633     221.374     -70.847     122.083     306.607      33.214
   full:       39.919     219.979     -71.060     122.376     308.671      31.141


           -------------------------------------------------
          | TOTAL ENERGY             -181.594105370363 Eh   |
          | GRADIENT NORM               0.222809388745 Eh/α |
          | HOMO-LUMO GAP               1.249167777571 eV   |
           -------------------------------------------------

------------------------------------------------------------------------
 * finished run on 2026/01/05 at 09:07:28.749     
------------------------------------------------------------------------
 total:
 * wall-time:     0 d,  0 h,  0 min,  0.555 sec
 *  cpu-time:     0 d,  0 h,  0 min,  8.336 sec
 * ratio c/w:    15.022 speedup
 SCF:
 * wall-time:     0 d,  0 h,  0 min,  0.516 sec
 *  cpu-time:     0 d,  0 h,  0 min,  7.757 sec
 * ratio c/w:    15.040 speedup

