      -----------------------------------------------------------      
     |                   =====================                   |     
     |                           x T B                           |     
     |                   =====================                   |     
     |                         S. Grimme                         |     
     |          Mulliken Center for Theoretical Chemistry        |     
     |                    University of Bonn                     |     
      -----------------------------------------------------------      

   * xtb version 6.7.1 (edcfbbe) compiled by 'conda@c0858423619e' on 2025-09-04

   xtb is free software: you can redistribute it and/or modify it under
   the terms of the GNU Lesser General Public License as published by
   the Free Software Foundation, either version 3 of the License, or
   (at your option) any later version.
   
   xtb is distributed in the hope that it will be useful,
   but WITHOUT ANY WARRANTY; without even the implied warranty of
   MERCHANTABILITY or FITNESS FOR A PARTICULAR PURPOSE.  See the
   GNU Lesser General Public License for more details.
   
   Cite this work as:
   * C. Bannwarth, E. Caldeweyher, S. Ehlert, A. Hansen, P. Pracht,
     J. Seibert, S. Spicher, S. Grimme, WIREs Comput. Mol. Sci., 2020, 11,
     e01493. DOI: 10.1002/wcms.1493
   
   for GFN2-xTB:
   * C. Bannwarth, S. Ehlert and S. Grimme., J. Chem. Theory Comput., 2019,
     15, 1652-1671. DOI: 10.1021/acs.jctc.8b01176
   for GFN1-xTB:
   * S. Grimme, C. Bannwarth, P. Shushkov, J. Chem. Theory Comput., 2017,
     13, 1989-2009. DOI: 10.1021/acs.jctc.7b00118
   for GFN0-xTB:
   * P. Pracht, E. Caldeweyher, S. Ehlert, S. Grimme, ChemRxiv, 2019, preprint.
     DOI: 10.26434/chemrxiv.8326202.v1
   for GFN-FF:
   * S. Spicher and S. Grimme, Angew. Chem. Int. Ed., 2020, 59, 15665-15673.
     DOI: 10.1002/anie.202004239
   
   for ALPB and GBSA implicit solvation:
   * S. Ehlert, M. Stahn, S. Spicher, S. Grimme, J. Chem. Theory Comput.,
     2021, 17, 4250-4261. DOI: 10.1021/acs.jctc.1c00471
   
   for ddCOSMO and CPCM-X implicit solvation:
   * M. Stahn, S. Ehlert, S. Grimme, J. Phys. Chem. A,
     2023, XX, XXXX-XXXX. DOI: 10.1021/acs.jpca.3c04382
   
   for DFT-D4:
   * E. Caldeweyher, C. Bannwarth and S. Grimme, J. Chem. Phys., 2017,
     147, 034112. DOI: 10.1063/1.4993215
   * E. Caldeweyher, S. Ehlert, A. Hansen, H. Neugebauer, S. Spicher,
     C. Bannwarth and S. Grimme, J. Chem. Phys., 2019, 150, 154122.
     DOI: 10.1063/1.5090222
   * E. Caldeweyher, J.-M. Mewes, S. Ehlert and S. Grimme, Phys. Chem. Chem. Phys.
     2020, 22, 8499-8512. DOI: 10.1039/D0CP00502A
   
   for sTDA-xTB:
   * S. Grimme and C. Bannwarth, J. Chem. Phys., 2016, 145, 054103.
     DOI: 10.1063/1.4959605
   
   in the mass-spec context:
   * V. Asgeirsson, C. Bauer and S. Grimme, Chem. Sci., 2017, 8, 4879.
     DOI: 10.1039/c7sc00601b
   * J. Koopman and S. Grimme, ACS Omega 2019, 4, 12, 15120-15133.
     DOI: 10.1021/acsomega.9b02011
   
   for metadynamics refer to:
   * S. Grimme, J. Chem. Theory Comput., 2019, 155, 2847-2862
     DOI: 10.1021/acs.jctc.9b00143
   
   for SPH calculations refer to:
   * S. Spicher and S. Grimme, J. Chem. Theory Comput., 2021, 17, 1701-1714
     DOI: 10.1021/acs.jctc.0c01306
   
   for ONIOM refer to:
   * C. Plett, A. Katbashev, S. Ehlert, S. Grimme, M. Bursch,
     Phys. Chem. Chem. Phys., 2023, 25, 17860-17868. DOI: 10.1039/D3CP02178E
   
   for DIPRO refer to:
   * J. Kohn, N. Gildemeister, S. Grimme, D. Fazzi, A. Hansen,
     J. Chem. Phys., 2023, just accepted.
   
   for PTB refer to:
   * S. Grimme, M. Mueller, A. Hansen, J. Chem. Phys., 2023, 158, 124111.
     DOI: 10.1063/5.0137838
   
   with help from (in alphabetical order)
   P. Atkinson, C. Bannwarth, F. Bohle, G. Brandenburg, E. Caldeweyher
   M. Checinski, S. Dohm, S. Ehlert, S. Ehrlich, I. Gerasimov, C. Hölzer
   A. Katbashev, J. Kohn, J. Koopman, C. Lavigne, S. Lehtola, F. März, M. Müller,
   F. Musil, H. Neugebauer, J. Pisarek, C. Plett, P. Pracht, F. Pultar,
   J. Seibert, P. Shushkov, S. Spicher, M. Stahn, M. Steiner, T. Strunk,
   J. Stückrath, T. Rose, and J. Unsleber
   
 * started run on 2026/01/05 at 09:06:27.574     
   ID    Z sym.   atoms
    1    6 C      1, 3-11, 14-16, 18, 20, 21, 24-29, 32, 62, 64, 67, 68, 70,
                  72, 75, 77, 79, 83, 85, 88, 89, 91, 93, 95, 97, 99, 103,
                  105, 108, 111, 115, 117, 120, 123, 128, 135, 139, 141, 144,
                  147, 152, 156, 158, 161, 164, 167, 171, 173, 175, 179, 183,
                  187, 189, 191, 195, 198, 202, 206, 208, 211, 212, 214, 216,
                  219, 221, 223, 227, 229, 232, 234, 238, 240, 244, 246, 248,
                  252, 255, 259, 263, 265, 267, 271, 274, 278
    2    7 N      2, 22, 60, 81, 101, 113, 126, 129, 132, 137, 149, 154, 169,
                  185, 204, 225, 233, 236, 242, 261
    3    8 O      12, 13, 17, 30, 31, 73, 80, 100, 109, 110, 112, 136, 148,
                  153, 165, 166, 168, 184, 203, 217, 224, 241, 260, 279
    4   16 S      19, 23
    5    1 H      33-59, 61, 63, 65, 66, 69, 71, 74, 76, 78, 82, 84, 86, 87,
                  90, 92, 94, 96, 98, 102, 104, 106, 107, 114, 116, 118, 119,
                  121, 122, 124, 125, 127, 130, 131, 133, 134, 138, 140, 142,
                  143, 145, 146, 150, 151, 155, 157, 159, 160, 162, 163, 170,
                  172, 174, 176-178, 180-182, 186, 188, 190, 192-194, 196,
                  197, 199-201, 205, 207, 209, 210, 213, 215, 218, 220, 222,
                  226, 228, 230, 231, 235, 237, 239, 243, 245, 247, 249-251,
                  253, 254, 256-258, 262, 264, 266, 268-270, 272, 273,
                  275-277, 280-293

           -------------------------------------------------
          |                Calculation Setup                |
           -------------------------------------------------

          program call               : xtb /home/antonio_mesquita/Documentos/gmx_ISA_project/testes_arquivos_primeiros/gmx_ISA_testes/testes_qm_xtb/QM_analysis/QM_FRAMES_CAPPED/frame_1600ps/complex_capped_1600ps.xyz --gfn 2 --alpb water --chrg 0 --etemp 1500 --cycles 1000
          coordinate file            : /home/antonio_mesquita/Documentos/gmx_ISA_project/testes_arquivos_primeiros/gmx_ISA_testes/testes_qm_xtb/QM_analysis/QM_FRAMES_CAPPED/frame_1600ps/complex_capped_1600ps.xyz
          omp threads                :                    16


molecular fragmentation (1/2 indicates fragments):
111111111111111111111111111111111111111111111111111111111112222222222222
222222222222222222222222222222222222222222222222222222222222222222222222
222222222222222222222222222222222222222222222222222222222222222222222222
222222222222222222222222222222222222222222222222222222222222222222222222
22222
# atoms in fragment 1/2:    59   234
 fragment masses (1/2) :      475.60     1590.89
CMA distance (Bohr)    :   7.859
constraining FC (au)   :  0.0500

           -------------------------------------------------
          |                 G F N 2 - x T B                 |
           -------------------------------------------------

        Reference                      10.1021/acs.jctc.8b01176
      * Hamiltonian:
        H0-scaling (s, p, d)           1.850000    2.230000    2.230000
        zeta-weighting                 0.500000
      * Dispersion:
        s8                             2.700000
        a1                             0.520000
        a2                             5.000000
        s9                             5.000000
      * Repulsion:
        kExp                           1.500000    1.000000
        rExp                           1.000000
      * Coulomb:
        alpha                          2.000000
        third order                    shell-resolved
        anisotropic                    true
        a3                             3.000000
        a5                             4.000000
        cn-shift                       1.200000
        cn-exp                         4.000000
        max-rad                        5.000000

      * Solvation model:               ALPB
        Solvent                        water
        Parameter file                 internal GFN2-xTB/ALPB
        Dielectric constant                8.0200E+01
        Reference state                gsolv [1 M gas/solution]
        Free energy shift                  1.0808E-03 Eh       6.7819E-01 kcal/mol
        Temperature                        2.9815E+02 K
        Density                            1.0000E+00 kg/L
        Solvent mass                       1.8000E+01 g/mol
        Interaction kernel             P16
        Born radius scaling (c1)           1.4744E+00
        Born radii integrator          GBOBC
        Born offset                        0.0000E+00 a0       0.0000E+00 AA
        H-bond correction              true
        Ion screening                  false
        Surface tension                    1.0000E-05 Eh       1.5569E+01 dyn/cm
        Grid points                               230 per atom

          ...................................................
          :                      SETUP                      :
          :.................................................:
          :  # basis functions                 740          :
          :  # atomic orbitals                 738          :
          :  # shells                          440          :
          :  # electrons                       800          :
          :  max. iterations                   250          :
          :  Hamiltonian                  GFN2-xTB          :
          :  restarted?                      false          :
          :  GBSA solvation                   true          :
          :  PC potential                    false          :
          :  electronic temp.         1500.0000000     K    :
          :  accuracy                    1.0000000          :
          :  -> integral cutoff          0.2500000E+02      :
          :  -> integral neglect         0.1000000E-07      :
          :  -> SCF convergence          0.1000000E-05 Eh   :
          :  -> wf. convergence          0.1000000E-03 e    :
          :  Broyden damping             0.4000000          :
          :  net charge                          0          :
          :  unpaired electrons                  0          :
          ...................................................

 iter      E             dE          RMSdq      gap      omega  full diag
   1   -454.1842093 -0.454184E+03  0.454E+00    0.12       0.0  T
   2   -454.9677805 -0.783571E+00  0.256E+00    1.37       1.0  T
   3   -454.8607110  0.107069E+00  0.167E+00    0.02       1.0  T
   4   -455.1297812 -0.269070E+00  0.842E-01    0.41       1.0  T
   5   -455.1913406 -0.615594E-01  0.543E-01    0.01       1.0  T
   6   -455.2677257 -0.763851E-01  0.251E-01    0.42       1.0  T
   7   -455.2572455  0.104802E-01  0.284E-01    0.08       1.0  T
   8   -455.2830582 -0.258127E-01  0.949E-02    0.31       1.0  T
   9   -455.2828781  0.180081E-03  0.774E-02    0.37       1.0  T
  10   -455.2843225 -0.144443E-02  0.371E-02    0.29       1.0  T
  11   -455.2844421 -0.119577E-03  0.264E-02    0.33       1.0  T
  12   -455.2845988 -0.156683E-03  0.122E-02    0.31       1.0  T
  13   -455.2845824  0.163333E-04  0.129E-02    0.31       1.0  T
  14   -455.2846270 -0.445775E-04  0.466E-03    0.31       1.3  T
  15   -455.2846293 -0.223893E-05  0.296E-03    0.32       2.0  T
  16   -455.2846312 -0.195991E-05  0.157E-03    0.31       3.7  T
  17   -455.2846318 -0.587247E-06  0.561E-04    0.31      10.4  T
  18   -455.2846318 -0.357948E-07  0.304E-04    0.31      19.2  T

   *** convergence criteria satisfied after 18 iterations ***

         #    Occupation            Energy/Eh            Energy/eV
      -------------------------------------------------------------
         1        2.0000           -0.7872427             -21.4220
       ...           ...                  ...                  ...
       394        1.9428           -0.3632004              -9.8832
       395        1.8806           -0.3595524              -9.7839
       396        1.8723           -0.3592097              -9.7746
       397        1.8662           -0.3589729              -9.7681
       398        1.8500           -0.3583904              -9.7523
       399        1.8485           -0.3583392              -9.7509
       400        1.8347           -0.3578876              -9.7386 (HOMO)
       401        0.9932           -0.3463909              -9.4258 (LUMO)
       402        0.0000           -0.2960613              -8.0562
       403        0.0000           -0.2941451              -8.0041
       404        0.0000           -0.2924088              -7.9568
       405        0.0000           -0.2891031              -7.8669
       ...           ...                  ...                  ...
       738                          1.0486238              28.5345
      -------------------------------------------------------------
                  HL-Gap            0.0114967 Eh            0.3128 eV
             Fermi-level           -0.3464556 Eh           -9.4275 eV

 SCC (total)                   0 d,  0 h,  0 min,  3.239 sec
 SCC setup                      ...        0 min,  0.015 sec (  0.464%)
 Dispersion                     ...        0 min,  0.040 sec (  1.246%)
 classical contributions        ...        0 min,  0.004 sec (  0.138%)
 integral evaluation            ...        0 min,  0.057 sec (  1.763%)
 iterations                     ...        0 min,  2.824 sec ( 87.195%)
 molecular gradient             ...        0 min,  0.289 sec (  8.918%)
 printout                       ...        0 min,  0.009 sec (  0.275%)

         :::::::::::::::::::::::::::::::::::::::::::::::::::::
         ::                     SUMMARY                     ::
         :::::::::::::::::::::::::::::::::::::::::::::::::::::
         :: total energy            -449.769577911253 Eh    ::
         :: total w/o Gsasa/hb      -449.731587213495 Eh    ::
         :: gradient norm              0.344200374362 Eh/a0 ::
         :: HOMO-LUMO gap              0.312840053828 eV    ::
         ::.................................................::
         :: SCC energy              -455.263090516646 Eh    ::
         :: -> isotropic ES            1.236557765113 Eh    ::
         :: -> anisotropic ES         -0.008360898101 Eh    ::
         :: -> anisotropic XC          0.182065884734 Eh    ::
         :: -> dispersion             -0.346431437378 Eh    ::
         :: -> Gsolv                  -0.331596017173 Eh    ::
         ::    -> Gelec               -0.293605319416 Eh    ::
         ::    -> Gsasa                0.010707915340 Eh    ::
         ::    -> Ghb                 -0.049779372796 Eh    ::
         ::    -> Gshift               0.001080759698 Eh    ::
         :: repulsion energy           5.493512605393 Eh    ::
         :: add. restraining           0.000000000000 Eh    ::
         :: total charge               0.000000000000 e     ::
         :::::::::::::::::::::::::::::::::::::::::::::::::::::

           -------------------------------------------------
          |                Property Printout                |
           -------------------------------------------------

    * Orbital Energies and Occupations

         #    Occupation            Energy/Eh            Energy/eV
      -------------------------------------------------------------
         1        2.0000           -0.7872427             -21.4220
       ...           ...                  ...                  ...
       388        1.9989           -0.3822510             -10.4016
       389        1.9940           -0.3740108             -10.1774
       390        1.9840           -0.3693508             -10.0505
       391        1.9825           -0.3689131             -10.0386
       392        1.9775           -0.3677208             -10.0062
       393        1.9759           -0.3673977              -9.9974
       394        1.9428           -0.3632004              -9.8832
       395        1.8806           -0.3595524              -9.7839
       396        1.8723           -0.3592097              -9.7746
       397        1.8662           -0.3589729              -9.7681
       398        1.8500           -0.3583904              -9.7523
       399        1.8485           -0.3583392              -9.7509
       400        1.8347           -0.3578876              -9.7386 (HOMO)
       401        0.9932           -0.3463909              -9.4258 (LUMO)
       402        0.0000           -0.2960613              -8.0562
       403        0.0000           -0.2941451              -8.0041
       404        0.0000           -0.2924088              -7.9568
       405        0.0000           -0.2891031              -7.8669
       406        0.0000           -0.2866940              -7.8013
       407        0.0000           -0.2825743              -7.6892
       408        0.0000           -0.2820666              -7.6754
       409                         -0.2610012              -7.1022
       410                         -0.2520426              -6.8584
       411                         -0.2515934              -6.8462
       ...                                ...                  ...
       738                          1.0486238              28.5345
      -------------------------------------------------------------
                  HL-Gap            0.0114967 Eh            0.3128 eV
             Fermi-level           -0.3464556 Eh           -9.4275 eV

     #   Z          covCN         q      C6AA      α(0)
     1   6 C        2.742     0.267    22.488     7.764
     2   7 N        2.684    -0.114    23.480     7.197
     3   6 C        2.869     0.036    27.194     8.548
     4   6 C        3.706     0.085    19.312     6.282
     5   6 C        3.804    -0.073    21.898     6.662
     6   6 C        2.955     0.018    27.614     8.619
     7   6 C        2.923    -0.044    29.098     8.846
     8   6 C        2.918    -0.037    28.912     8.817
     9   6 C        2.904    -0.032    28.791     8.798
    10   6 C        2.924    -0.024    28.606     8.771
    11   6 C        2.916    -0.034    28.850     8.808
    12   8 O        1.705    -0.285    18.739     5.845
    13   8 O        0.856    -0.491    23.591     6.512
    14   6 C        2.726     0.338    21.264     7.549
    15   6 C        3.746    -0.128    23.035     6.846
    16   6 C        3.856     0.018    20.240     6.398
    17   8 O        0.859    -0.461    22.942     6.422
    18   6 C        3.789    -0.027    21.060     6.536
    19  16 S        1.971    -0.159   147.768    20.460
    20   6 C        3.792    -0.038    21.268     6.567
    21   6 C        3.857     0.035    19.943     6.351
    22   7 N        2.731    -0.304    27.818     7.833
    23  16 S        3.829     1.164   102.082    17.005
    24   6 C        2.968    -0.091    30.279     9.026
    25   6 C        2.935    -0.026    28.642     8.777
    26   6 C        2.910    -0.023    28.583     8.767
    27   6 C        2.960     0.041    27.089     8.537
    28   6 C        2.931    -0.042    29.043     8.838
    29   6 C        2.958    -0.034    28.837     8.808
    30   8 O        0.860    -0.672    27.966     7.090
    31   8 O        0.860    -0.624    26.707     6.929
    32   6 C        3.754    -0.132    23.085     6.851
    33   1 H        0.861     0.236     0.939     1.518
    34   1 H        0.924     0.042     2.428     2.437
    35   1 H        0.924     0.062     2.175     2.306
    36   1 H        0.924     0.091     1.873     2.140
    37   1 H        0.924     0.086     1.919     2.166
    38   1 H        0.925     0.045     2.389     2.417
    39   1 H        0.925     0.054     2.273     2.358
    40   1 H        0.925     0.040     2.444     2.445
    41   1 H        0.925     0.019     2.755     2.596
    42   1 H        0.925     0.028     2.622     2.532
    43   1 H        0.924     0.061     2.183     2.311
    44   1 H        0.924     0.071     2.078     2.254
    45   1 H        0.924     0.057     2.234     2.337
    46   1 H        0.925     0.033     2.540     2.492
    47   1 H        0.923     0.051     2.307     2.375
    48   1 H        0.923     0.077     2.014     2.219
    49   1 H        0.923     0.081     1.964     2.192
    50   1 H        0.924     0.104     1.746     2.066
    51   1 H        0.923     0.083     1.944     2.181
    52   1 H        0.924     0.093     1.852     2.128
    53   1 H        0.925     0.066     2.126     2.280
    54   1 H        0.926     0.080     1.979     2.200
    55   1 H        0.925     0.080     1.979     2.200
    56   1 H        0.924     0.054     2.267     2.355
    57   1 H        0.924     0.071     2.079     2.255
    58   1 H        0.924     0.071     2.072     2.251
    59   1 H        0.924     0.085     1.930     2.173
    60   7 N        2.633    -0.326    28.383     7.912
    61   1 H        0.860     0.183     1.195     1.712
    62   6 C        3.787     0.042    19.875     6.350
    63   1 H        0.925     0.087     1.908     2.160
    64   6 C        3.812    -0.078    21.979     6.673
    65   1 H        0.923     0.077     2.011     2.218
    66   1 H        0.924     0.061     2.186     2.312
    67   6 C        2.963    -0.005    28.141     8.701
    68   6 C        2.915    -0.048    29.192     8.860
    69   1 H        0.926     0.042     2.419     2.432
    70   6 C        2.905    -0.069    29.720     8.939
    71   1 H        0.926     0.033     2.549     2.497
    72   6 C        2.834     0.141    24.912     8.179
    73   8 O        1.659    -0.432    21.470     6.255
    74   1 H        0.805     0.338     0.618     1.234
    75   6 C        2.910    -0.066    29.632     8.926
    76   1 H        0.925     0.050     2.316     2.380
    77   6 C        2.910    -0.045    29.129     8.850
    78   1 H        0.926     0.060     2.199     2.319
    79   6 C        2.761     0.207    23.599     7.955
    80   8 O        0.856    -0.378    21.248     6.180
    81   7 N        2.632    -0.338    28.696     7.956
    82   1 H        0.860     0.178     1.224     1.733
    83   6 C        3.785     0.039    19.929     6.359
    84   1 H        0.925     0.079     1.994     2.208
    85   6 C        3.809    -0.076    21.949     6.669
    86   1 H        0.925     0.064     2.151     2.293
    87   1 H        0.925     0.052     2.290     2.366
    88   6 C        2.954     0.009    27.813     8.650
    89   6 C        2.928    -0.041    29.023     8.835
    90   1 H        0.926     0.040     2.448     2.447
    91   6 C        2.906    -0.037    28.921     8.818
    92   1 H        0.925     0.042     2.418     2.432
    93   6 C        2.914    -0.039    28.963     8.825
    94   1 H        0.926     0.039     2.464     2.455
    95   6 C        2.912    -0.037    28.918     8.818
    96   1 H        0.926     0.033     2.540     2.492
    97   6 C        2.918    -0.045    29.110     8.848
    98   1 H        0.926     0.028     2.617     2.530
    99   6 C        2.754     0.268    22.470     7.762
   100   8 O        0.862    -0.508    23.964     6.563
   101   7 N        2.693    -0.146    24.163     7.301
   102   1 H        0.860     0.210     1.058     1.611
   103   6 C        3.797     0.034    20.012     6.370
   104   1 H        0.924     0.099     1.791     2.093
   105   6 C        3.813    -0.084    22.099     6.691
   106   1 H        0.924     0.046     2.377     2.411
   107   1 H        0.924     0.075     2.035     2.231
   108   6 C        2.693     0.354    20.990     7.498
   109   8 O        0.857    -0.602    26.167     6.858
   110   8 O        0.857    -0.598    26.072     6.846
   111   6 C        2.758     0.207    23.602     7.956
   112   8 O        0.856    -0.351    20.734     6.105
   113   7 N        2.636    -0.347    28.926     7.988
   114   1 H        0.860     0.187     1.176     1.699
   115   6 C        3.785     0.038    19.959     6.364
   116   1 H        0.925     0.103     1.762     2.076
   117   6 C        3.809    -0.073    21.892     6.660
   118   1 H        0.924     0.059     2.216     2.328
   119   1 H        0.925     0.068     2.105     2.269
   120   6 C        3.801    -0.082    22.060     6.687
   121   1 H        0.925     0.067     2.117     2.275
   122   1 H        0.925     0.059     2.207     2.323
   123   6 C        3.739    -0.023    21.063     6.549
   124   1 H        0.924     0.078     2.001     2.212
   125   1 H        0.925     0.080     1.976     2.198
   126   7 N        2.700    -0.155    24.345     7.328
   127   1 H        0.860     0.231     0.962     1.537
   128   6 C        2.735     0.238    23.014     7.854
   129   7 N        2.646    -0.270    26.990     7.716
   130   1 H        0.860     0.242     0.915     1.498
   131   1 H        0.861     0.258     0.853     1.447
   132   7 N        2.664    -0.276    27.139     7.737
   133   1 H        0.860     0.237     0.936     1.516
   134   1 H        0.860     0.239     0.929     1.510
   135   6 C        2.758     0.202    23.707     7.973
   136   8 O        0.856    -0.394    21.559     6.225
   137   7 N        2.633    -0.363    29.363     8.048
   138   1 H        0.860     0.181     1.209     1.723
   139   6 C        3.793     0.028    20.117     6.387
   140   1 H        0.925     0.072     2.059     2.244
   141   6 C        3.811    -0.061    21.659     6.625
   142   1 H        0.924     0.053     2.283     2.363
   143   1 H        0.924     0.049     2.337     2.390
   144   6 C        3.804    -0.102    22.451     6.746
   145   1 H        0.925     0.085     1.923     2.169
   146   1 H        0.925     0.074     2.045     2.236
   147   6 C        2.747     0.287    22.142     7.705
   148   8 O        0.863    -0.542    24.727     6.667
   149   7 N        2.640    -0.301    27.749     7.824
   150   1 H        0.860     0.238     0.931     1.511
   151   1 H        0.860     0.256     0.859     1.452
   152   6 C        2.756     0.270    22.445     7.758
   153   8 O        0.859    -0.506    23.913     6.556
   154   7 N        2.694    -0.177    24.821     7.399
   155   1 H        0.860     0.216     1.027     1.587
   156   6 C        3.801     0.028    20.106     6.384
   157   1 H        0.925     0.090     1.880     2.144
   158   6 C        3.804    -0.055    21.565     6.611
   159   1 H        0.924     0.065     2.146     2.291
   160   1 H        0.925     0.046     2.372     2.408
   161   6 C        3.801    -0.087    22.167     6.703
   162   1 H        0.924     0.026     2.647     2.544
   163   1 H        0.924     0.038     2.476     2.461
   164   6 C        2.687     0.365    20.815     7.466
   165   8 O        0.858    -0.648    27.331     7.009
   166   8 O        0.857    -0.655    27.508     7.032
   167   6 C        2.749     0.276    22.335     7.739
   168   8 O        0.860    -0.516    24.137     6.587
   169   7 N        2.692    -0.158    24.427     7.340
   170   1 H        0.860     0.192     1.146     1.677
   171   6 C        3.797     0.018    20.271     6.411
   172   1 H        0.925     0.081     1.969     2.194
   173   6 C        3.856    -0.014    20.785     6.484
   174   1 H        0.925     0.058     2.218     2.329
   175   6 C        3.753    -0.116    22.778     6.806
   176   1 H        0.925     0.065     2.140     2.288
   177   1 H        0.925     0.042     2.422     2.434
   178   1 H        0.924     0.034     2.534     2.489
   179   6 C        3.753    -0.115    22.751     6.802
   180   1 H        0.924     0.037     2.496     2.471
   181   1 H        0.924     0.041     2.436     2.441
   182   1 H        0.925     0.056     2.247     2.344
   183   6 C        2.756     0.274    22.370     7.745
   184   8 O        0.859    -0.509    23.973     6.565
   185   7 N        2.692    -0.154    24.331     7.326
   186   1 H        0.860     0.218     1.019     1.581
   187   6 C        3.795     0.036    19.973     6.364
   188   1 H        0.925     0.087     1.909     2.161
   189   6 C        3.854    -0.017    20.846     6.494
   190   1 H        0.925     0.070     2.086     2.259
   191   6 C        3.755    -0.122    22.900     6.823
   192   1 H        0.925     0.043     2.408     2.426
   193   1 H        0.924     0.036     2.506     2.476
   194   1 H        0.925     0.074     2.044     2.236
   195   6 C        3.804    -0.065    21.753     6.640
   196   1 H        0.925     0.033     2.539     2.492
   197   1 H        0.925     0.036     2.502     2.473
   198   6 C        3.749    -0.120    22.857     6.819
   199   1 H        0.925     0.052     2.299     2.371
   200   1 H        0.924     0.052     2.299     2.371
   201   1 H        0.925     0.053     2.277     2.360
   202   6 C        2.757     0.211    23.529     7.943
   203   8 O        0.856    -0.388    21.450     6.210
   204   7 N        2.637    -0.342    28.806     7.971
   205   1 H        0.860     0.186     1.179     1.701
   206   6 C        3.785     0.043    19.871     6.349
   207   1 H        0.925     0.090     1.883     2.146
   208   6 C        3.819    -0.071    21.850     6.652
   209   1 H        0.925     0.076     2.024     2.225
   210   1 H        0.924     0.063     2.160     2.299
   211   6 C        2.958     0.010    27.796     8.648
   212   6 C        2.917    -0.042    29.038     8.837
   213   1 H        0.925     0.042     2.427     2.436
   214   6 C        2.906    -0.071    29.769     8.946
   215   1 H        0.926     0.042     2.427     2.436
   216   6 C        2.835     0.131    25.131     8.215
   217   8 O        1.661    -0.464    22.132     6.351
   218   1 H        0.805     0.353     0.581     1.197
   219   6 C        2.910    -0.058    29.450     8.899
   220   1 H        0.925     0.050     2.318     2.381
   221   6 C        2.913    -0.044    29.104     8.846
   222   1 H        0.926     0.061     2.187     2.312
   223   6 C        2.762     0.196    23.819     7.992
   224   8 O        0.858    -0.388    21.440     6.208
   225   7 N        2.633    -0.322    28.290     7.899
   226   1 H        0.861     0.201     1.101     1.643
   227   6 C        3.785     0.045    19.831     6.343
   228   1 H        0.925     0.058     2.226     2.333
   229   6 C        3.806    -0.067    21.783     6.644
   230   1 H        0.923     0.059     2.207     2.323
   231   1 H        0.925     0.070     2.089     2.260
   232   6 C        3.022     0.045    26.959     8.517
   233   7 N        1.955    -0.334    29.484     8.052
   234   6 C        3.032     0.080    26.186     8.394
   235   1 H        0.926     0.050     2.325     2.385
   236   7 N        2.764    -0.103    23.262     7.163
   237   1 H        0.861     0.237     0.937     1.517
   238   6 C        3.082    -0.028    28.602     8.767
   239   1 H        0.925     0.049     2.330     2.387
   240   6 C        2.757     0.202    23.696     7.971
   241   8 O        0.857    -0.349    20.691     6.099
   242   7 N        2.632    -0.340    28.751     7.963
   243   1 H        0.860     0.177     1.231     1.738
   244   6 C        3.788     0.027    20.127     6.390
   245   1 H        0.924     0.071     2.076     2.253
   246   6 C        3.862    -0.022    20.917     6.504
   247   1 H        0.924     0.056     2.244     2.343
   248   6 C        3.756    -0.114    22.736     6.799
   249   1 H        0.924     0.046     2.372     2.408
   250   1 H        0.924     0.041     2.441     2.443
   251   1 H        0.923     0.041     2.438     2.442
   252   6 C        3.808    -0.059    21.633     6.621
   253   1 H        0.924     0.033     2.543     2.494
   254   1 H        0.923     0.046     2.377     2.411
   255   6 C        3.755    -0.115    22.756     6.802
   256   1 H        0.923     0.044     2.399     2.422
   257   1 H        0.924     0.030     2.580     2.512
   258   1 H        0.925     0.044     2.390     2.418
   259   6 C        2.747     0.267    22.486     7.765
   260   8 O        0.862    -0.518    24.195     6.595
   261   7 N        2.692    -0.161    24.493     7.350
   262   1 H        0.860     0.221     1.004     1.569
   263   6 C        3.789     0.034    20.010     6.371
   264   1 H        0.924     0.073     2.050     2.239
   265   6 C        3.855    -0.021    20.918     6.505
   266   1 H        0.924     0.073     2.058     2.243
   267   6 C        3.750    -0.118    22.815     6.812
   268   1 H        0.925     0.052     2.301     2.372
   269   1 H        0.924     0.066     2.133     2.284
   270   1 H        0.924     0.031     2.578     2.511
   271   6 C        3.802    -0.055    21.566     6.612
   272   1 H        0.925     0.037     2.488     2.467
   273   1 H        0.924     0.043     2.410     2.428
   274   6 C        3.752    -0.112    22.699     6.794
   275   1 H        0.925     0.047     2.357     2.401
   276   1 H        0.925     0.035     2.521     2.483
   277   1 H        0.924     0.026     2.640     2.541
   278   6 C        2.761     0.204    23.660     7.966
   279   8 O        0.857    -0.360    20.900     6.129
   280   1 H        0.860     0.202     1.094     1.639
   281   1 H        0.923     0.065     2.145     2.290
   282   1 H        0.860     0.206     1.076     1.625
   283   1 H        0.923     0.072     2.066     2.248
   284   1 H        0.860     0.196     1.129     1.664
   285   1 H        0.923     0.070     2.087     2.259
   286   1 H        0.860     0.171     1.268     1.764
   287   1 H        0.923     0.075     2.027     2.226
   288   1 H        0.860     0.194     1.136     1.670
   289   1 H        0.923     0.081     1.972     2.196
   290   1 H        0.860     0.194     1.135     1.669
   291   1 H        0.923     0.071     2.078     2.254
   292   1 H        0.860     0.194     1.140     1.672
   293   1 H        0.923     0.075     2.035     2.231

 Mol. C6AA /au·bohr⁶  :     864445.066512
 Mol. C8AA /au·bohr⁸  :   20001908.934436
 Mol. α(0) /au        :       1416.250870


Wiberg/Mayer (AO) data.
largest (>0.10) Wiberg bond orders for each atom

 ---------------------------------------------------------------------------
     #   Z sym  total        # sym  WBO       # sym  WBO       # sym  WBO
 ---------------------------------------------------------------------------
     1   6 C    3.877 --    17 O    1.671     2 N    1.172    21 C    0.946
     2   7 N    3.481 --     3 C    1.195     1 C    1.172    33 H    0.878
                            17 O    0.133
     3   6 C    3.497 --     2 N    1.195    14 C    1.093     5 C    1.032
     4   6 C    3.919 --    15 C    1.011    34 H    0.973    35 H    0.969
                            12 O    0.935
     5   6 C    3.969 --     3 C    1.032     6 C    0.961    37 H    0.957
                            36 H    0.941
     6   6 C    3.951 --     7 C    1.418    11 C    1.408     5 C    0.961
                             9 C    0.110
     7   6 C    3.986 --     8 C    1.438     6 C    1.418    38 H    0.969
                            10 C    0.108
     8   6 C    3.986 --     7 C    1.438     9 C    1.435    39 H    0.968
                            11 C    0.115
     9   6 C    3.987 --    10 C    1.440     8 C    1.435    40 H    0.969
                             6 C    0.110
    10   6 C    3.989 --    11 C    1.442     9 C    1.440    41 H    0.970
                             7 C    0.108
    11   6 C    3.989 --    10 C    1.442     6 C    1.408    42 H    0.969
                             8 C    0.115
    12   8 O    2.227 --    14 C    1.083     4 C    0.935    13 O    0.145
    13   8 O    1.864 --    14 C    1.618    12 O    0.145
    14   6 C    3.863 --    13 O    1.618     3 C    1.093    12 O    1.083
    15   6 C    3.982 --     4 C    1.011    44 H    0.986    45 H    0.983
                            43 H    0.982
    16   6 C    3.967 --    18 C    1.006    22 N    0.984    46 H    0.968
                            47 H    0.961
    17   8 O    1.914 --     1 C    1.671     2 N    0.133
    18   6 C    3.970 --    16 C    1.006    19 S    0.989    48 H    0.968
                            49 H    0.967
    19  16 S    2.129 --    20 C    0.992    18 C    0.989
    20   6 C    3.966 --    19 S    0.992    21 C    0.992    51 H    0.964
                            50 H    0.961
    21   6 C    3.967 --    20 C    0.992    22 N    0.977     1 C    0.946
                            52 H    0.932
    22   7 N    3.154 --    16 C    0.984    21 C    0.977    23 S    0.880
    23  16 S    4.795 --    31 O    1.565    30 O    1.529    22 N    0.880
                            24 C    0.724
    24   6 C    3.936 --    29 C    1.418    25 C    1.395    23 S    0.724
    25   6 C    3.979 --    26 C    1.455    24 C    1.395    53 H    0.962
                            28 C    0.105
    26   6 C    3.983 --    25 C    1.455    27 C    1.386    54 H    0.957
                            29 C    0.108
    27   6 C    3.980 --    28 C    1.416    26 C    1.386    32 C    1.032
    28   6 C    3.982 --    29 C    1.428    27 C    1.416    55 H    0.963
                            25 C    0.105
    29   6 C    3.984 --    28 C    1.428    24 C    1.418    56 H    0.966
                            26 C    0.108
    30   8 O    1.821 --    23 S    1.529    31 O    0.104
    31   8 O    1.864 --    23 S    1.565    30 O    0.104
    32   6 C    3.986 --    27 C    1.032    57 H    0.979    58 H    0.969
                            59 H    0.956
    33   1 H    0.940 --     2 N    0.878
    34   1 H    0.995 --     4 C    0.973
    35   1 H    0.994 --     4 C    0.969
    36   1 H    0.980 --     5 C    0.941
    37   1 H    0.986 --     5 C    0.957
    38   1 H    0.998 --     7 C    0.969
    39   1 H    0.996 --     8 C    0.968
    40   1 H    0.997 --     9 C    0.969
    41   1 H    0.999 --    10 C    0.970
    42   1 H    0.999 --    11 C    0.969
    43   1 H    0.996 --    15 C    0.982
    44   1 H    0.995 --    15 C    0.986
    45   1 H    0.996 --    15 C    0.983
    46   1 H    0.999 --    16 C    0.968
    47   1 H    0.997 --    16 C    0.961
    48   1 H    0.993 --    18 C    0.968
    49   1 H    0.993 --    18 C    0.967
    50   1 H    0.988 --    20 C    0.961
    51   1 H    0.992 --    20 C    0.964
    52   1 H    0.989 --    21 C    0.932
    53   1 H    0.995 --    25 C    0.962
    54   1 H    0.992 --    26 C    0.957
    55   1 H    0.992 --    28 C    0.963
    56   1 H    0.997 --    29 C    0.966
    57   1 H    0.995 --    32 C    0.979
    58   1 H    0.994 --    32 C    0.969
    59   1 H    0.992 --    32 C    0.956
    60   7 N    2.992 --    62 C    1.036    61 H    0.949   280 H    0.945
    61   1 H    0.966 --    60 N    0.949
    62   6 C    3.975 --    60 N    1.036    79 C    0.987    63 H    0.932
                            64 C    0.931
    63   1 H    0.985 --    62 C    0.932
    64   6 C    3.969 --    67 C    1.009    66 H    0.967    65 H    0.962
                            62 C    0.931
    65   1 H    0.993 --    64 C    0.962
    66   1 H    0.994 --    64 C    0.967
    67   6 C    3.972 --    77 C    1.401    68 C    1.399    64 C    1.009
    68   6 C    3.982 --    70 C    1.455    67 C    1.399    69 H    0.967
                            75 C    0.105
    69   1 H    0.998 --    68 C    0.967
    70   6 C    3.979 --    68 C    1.455    72 C    1.357    71 H    0.965
                            77 C    0.104
    71   1 H    0.999 --    70 C    0.965
    72   6 C    3.922 --    70 C    1.357    75 C    1.352    73 O    1.090
    73   8 O    2.090 --    72 C    1.090    74 H    0.823
    74   1 H    0.885 --    73 O    0.823
    75   6 C    3.976 --    77 C    1.458    72 C    1.352    76 H    0.969
                            68 C    0.105
    76   1 H    0.997 --    75 C    0.969
    77   6 C    3.981 --    75 C    1.458    67 C    1.401    78 H    0.966
                            70 C    0.104
    78   1 H    0.996 --    77 C    0.966
    79   6 C    3.886 --    80 O    1.888    62 C    0.987   281 H    0.937
    80   8 O    2.047 --    79 C    1.888
    81   7 N    3.001 --    83 C    1.033    82 H    0.952   282 H    0.944
    82   1 H    0.968 --    81 N    0.952
    83   6 C    3.967 --    81 N    1.033    84 H    0.958    85 C    0.950
                            99 C    0.928
    84   1 H    0.993 --    83 C    0.958
    85   6 C    3.966 --    88 C    1.012    86 H    0.959    87 H    0.955
                            83 C    0.950
    86   1 H    0.994 --    85 C    0.959
    87   1 H    0.996 --    85 C    0.955
    88   6 C    3.987 --    97 C    1.408    89 C    1.407    85 C    1.012
                            93 C    0.108
    89   6 C    3.987 --    91 C    1.444    88 C    1.407    90 H    0.969
                            95 C    0.111
    90   1 H    0.998 --    89 C    0.969
    91   6 C    3.988 --    89 C    1.444    93 C    1.435    92 H    0.970
                            97 C    0.111
    92   1 H    0.998 --    91 C    0.970
    93   6 C    3.985 --    95 C    1.437    91 C    1.435    94 H    0.971
                            88 C    0.108
    94   1 H    0.998 --    93 C    0.971
    95   6 C    3.990 --    97 C    1.441    93 C    1.437    96 H    0.972
                            89 C    0.111
    96   1 H    0.999 --    95 C    0.972
    97   6 C    3.988 --    95 C    1.441    88 C    1.408    98 H    0.966
                            91 C    0.111
    98   1 H    0.999 --    97 C    0.966
    99   6 C    3.926 --   100 O    1.610   101 N    1.313    83 C    0.928
   100   8 O    1.907 --    99 C    1.610   101 N    0.190
   101   7 N    3.480 --    99 C    1.313   103 C    0.981   102 H    0.920
                           100 O    0.190
   102   1 H    0.956 --   101 N    0.920
   103   6 C    3.966 --   111 C    0.988   101 N    0.981   105 C    0.945
                           104 H    0.943
   104   1 H    0.990 --   103 C    0.943
   105   6 C    3.986 --   106 H    0.974   107 H    0.946   103 C    0.945
                           108 C    0.944
   106   1 H    0.998 --   105 C    0.974
   107   1 H    0.994 --   105 C    0.946
   108   6 C    3.938 --   110 O    1.487   109 O    1.471   105 C    0.944
   109   8 O    1.868 --   108 C    1.471   110 O    0.210
   110   8 O    1.871 --   108 C    1.487   109 O    0.210
   111   6 C    3.893 --   112 O    1.907   103 C    0.988   283 H    0.936
   112   8 O    2.067 --   111 C    1.907
   113   7 N    2.981 --   115 C    1.028   114 H    0.950   284 H    0.948
   114   1 H    0.965 --   113 N    0.950
   115   6 C    3.976 --   113 N    1.028   135 C    0.978   117 C    0.968
                           116 H    0.918
   116   1 H    0.988 --   115 C    0.918
   117   6 C    3.978 --   120 C    1.006   115 C    0.968   119 H    0.967
                           118 H    0.967
   118   1 H    0.996 --   117 C    0.967
   119   1 H    0.995 --   117 C    0.967
   120   6 C    3.990 --   117 C    1.006   123 C    0.996   121 H    0.973
                           122 H    0.971
   121   1 H    0.995 --   120 C    0.973
   122   1 H    0.996 --   120 C    0.971
   123   6 C    3.957 --   120 C    0.996   126 N    0.986   125 H    0.967
                           124 H    0.964
   124   1 H    0.993 --   123 C    0.964
   125   1 H    0.994 --   123 C    0.967
   126   7 N    3.435 --   128 C    1.285   123 C    0.986   127 H    0.915
   127   1 H    0.947 --   126 N    0.915
   128   6 C    3.974 --   129 N    1.343   132 N    1.315   126 N    1.285
   129   7 N    3.390 --   128 C    1.343   130 H    0.914   131 H    0.849
                           132 N    0.108
   130   1 H    0.941 --   129 N    0.914
   131   1 H    0.933 --   129 N    0.849
   132   7 N    3.385 --   128 C    1.315   133 H    0.922   134 H    0.881
                           129 N    0.108
   133   1 H    0.944 --   132 N    0.922
   134   1 H    0.943 --   132 N    0.881
   135   6 C    3.864 --   136 O    1.881   115 C    0.978   285 H    0.935
   136   8 O    2.031 --   135 C    1.881
   137   7 N    3.014 --   139 C    1.015   138 H    0.957   286 H    0.954
   138   1 H    0.967 --   137 N    0.957
   139   6 C    3.978 --   137 N    1.015   141 C    0.982   152 C    0.941
                           140 H    0.938
   140   1 H    0.995 --   139 C    0.938
   141   6 C    3.983 --   144 C    0.992   139 C    0.982   143 H    0.973
                           142 H    0.968
   142   1 H    0.996 --   141 C    0.968
   143   1 H    0.997 --   141 C    0.973
   144   6 C    3.989 --   141 C    0.992   147 C    0.976   146 H    0.969
                           145 H    0.953
   145   1 H    0.992 --   144 C    0.953
   146   1 H    0.994 --   144 C    0.969
   147   6 C    3.940 --   148 O    1.616   149 N    1.322   144 C    0.976
   148   8 O    1.909 --   147 C    1.616   149 N    0.195
   149   7 N    3.388 --   147 C    1.322   150 H    0.923   151 H    0.911
                           148 O    0.195
   150   1 H    0.943 --   149 N    0.923
   151   1 H    0.934 --   149 N    0.911
   152   6 C    3.938 --   153 O    1.632   154 N    1.281   139 C    0.941
   153   8 O    1.941 --   152 C    1.632   154 N    0.192
   154   7 N    3.461 --   152 C    1.281   156 C    0.989   155 H    0.909
                           153 O    0.192
   155   1 H    0.953 --   154 N    0.909
   156   6 C    3.967 --   154 N    0.989   158 C    0.976   167 C    0.948
                           157 H    0.932
   157   1 H    0.991 --   156 C    0.932
   158   6 C    3.987 --   161 C    1.010   156 C    0.976   160 H    0.976
                           159 H    0.970
   159   1 H    0.995 --   158 C    0.970
   160   1 H    0.997 --   158 C    0.976
   161   6 C    3.984 --   158 C    1.010   162 H    0.967   163 H    0.961
                           164 C    0.939
   162   1 H    0.999 --   161 C    0.967
   163   1 H    0.998 --   161 C    0.961
   164   6 C    3.930 --   165 O    1.487   166 O    1.480   161 C    0.939
   165   8 O    1.763 --   164 C    1.487   166 O    0.208
   166   8 O    1.758 --   164 C    1.480   165 O    0.208
   167   6 C    3.951 --   168 O    1.609   169 N    1.310   156 C    0.948
   168   8 O    1.923 --   167 C    1.609   169 N    0.195
   169   7 N    3.483 --   167 C    1.310   171 C    0.979   170 H    0.920
                           168 O    0.195
   170   1 H    0.963 --   169 N    0.920
   171   6 C    3.960 --   169 N    0.979   173 C    0.952   172 H    0.947
                           183 C    0.944
   172   1 H    0.993 --   171 C    0.947
   173   6 C    3.989 --   179 C    1.011   175 C    1.006   174 H    0.960
                           171 C    0.952
   174   1 H    0.996 --   173 C    0.960
   175   6 C    3.991 --   173 C    1.006   178 H    0.987   177 H    0.983
                           176 H    0.982
   176   1 H    0.995 --   175 C    0.982
   177   1 H    0.998 --   175 C    0.983
   178   1 H    0.999 --   175 C    0.987
   179   6 C    3.987 --   173 C    1.011   180 H    0.984   181 H    0.982
                           182 H    0.980
   180   1 H    0.999 --   179 C    0.984
   181   1 H    0.998 --   179 C    0.982
   182   1 H    0.997 --   179 C    0.980
   183   6 C    3.950 --   184 O    1.623   185 N    1.308   171 C    0.944
   184   8 O    1.952 --   183 C    1.623   185 N    0.198
   185   7 N    3.478 --   183 C    1.308   187 C    0.975   186 H    0.914
                           184 O    0.198
   186   1 H    0.953 --   185 N    0.914
   187   6 C    3.960 --   202 C    0.988   185 N    0.975   189 C    0.947
                           188 H    0.937
   188   1 H    0.992 --   187 C    0.937
   189   6 C    3.979 --   191 C    1.007   195 C    0.991   190 H    0.960
                           187 C    0.947
   190   1 H    0.994 --   189 C    0.960
   191   6 C    3.986 --   189 C    1.007   192 H    0.981   193 H    0.979
                           194 H    0.974
   192   1 H    0.998 --   191 C    0.981
   193   1 H    0.999 --   191 C    0.979
   194   1 H    0.993 --   191 C    0.974
   195   6 C    3.991 --   198 C    1.015   189 C    0.991   196 H    0.976
                           197 H    0.975
   196   1 H    0.999 --   195 C    0.976
   197   1 H    0.999 --   195 C    0.975
   198   6 C    3.992 --   195 C    1.015   201 H    0.987   199 H    0.985
                           200 H    0.984
   199   1 H    0.997 --   198 C    0.985
   200   1 H    0.997 --   198 C    0.984
   201   1 H    0.997 --   198 C    0.987
   202   6 C    3.887 --   203 O    1.879   187 C    0.988   287 H    0.940
   203   8 O    2.029 --   202 C    1.879
   204   7 N    2.986 --   206 C    1.036   205 H    0.949   288 H    0.946
   205   1 H    0.965 --   204 N    0.949
   206   6 C    3.975 --   204 N    1.036   223 C    0.970   208 C    0.958
                           207 H    0.928
   207   1 H    0.989 --   206 C    0.928
   208   6 C    3.983 --   211 C    1.010   210 H    0.967   206 C    0.958
                           209 H    0.951
   209   1 H    0.993 --   208 C    0.951
   210   1 H    0.995 --   208 C    0.967
   211   6 C    3.985 --   221 C    1.421   212 C    1.391   208 C    1.010
   212   6 C    3.989 --   214 C    1.468   211 C    1.391   213 H    0.967
                           219 C    0.106
   213   1 H    0.998 --   212 C    0.967
   214   6 C    3.987 --   212 C    1.468   216 C    1.366   215 H    0.967
                           221 C    0.108
   215   1 H    0.998 --   214 C    0.967
   216   6 C    3.937 --   219 C    1.394   214 C    1.366   217 O    1.037
   217   8 O    2.009 --   216 C    1.037   218 H    0.848
   218   1 H    0.875 --   217 O    0.848
   219   6 C    3.985 --   221 C    1.433   216 C    1.394   220 H    0.962
                           212 C    0.106
   220   1 H    0.997 --   219 C    0.962
   221   6 C    3.986 --   219 C    1.433   211 C    1.421   222 H    0.961
                           214 C    0.108
   222   1 H    0.996 --   221 C    0.961
   223   6 C    3.856 --   224 O    1.885   206 C    0.970   289 H    0.934
   224   8 O    2.027 --   223 C    1.885
   225   7 N    2.975 --   227 C    1.027   290 H    0.947   226 H    0.926
   226   1 H    0.959 --   225 N    0.926
   227   6 C    3.978 --   225 N    1.027   240 C    0.987   228 H    0.947
                           229 C    0.932
   228   1 H    0.983 --   227 C    0.947
   229   6 C    3.972 --   232 C    1.012   230 H    0.963   231 H    0.963
                           227 C    0.932
   230   1 H    0.995 --   229 C    0.963
   231   1 H    0.995 --   229 C    0.963
   232   6 C    3.971 --   238 C    1.574   233 N    1.260   229 C    1.012
   233   7 N    2.980 --   234 C    1.528   232 C    1.260   236 N    0.104
   234   6 C    3.960 --   233 N    1.528   236 N    1.300   235 H    0.965
                           238 C    0.115
   235   1 H    0.997 --   234 C    0.965
   236   7 N    3.585 --   234 C    1.300   238 C    1.191   237 H    0.916
                           233 N    0.104
   237   1 H    0.944 --   236 N    0.916
   238   6 C    3.926 --   232 C    1.574   236 N    1.191   239 H    0.964
                           234 C    0.115
   239   1 H    0.997 --   238 C    0.964
   240   6 C    3.891 --   241 O    1.903   227 C    0.987   291 H    0.938
   241   8 O    2.060 --   240 C    1.903
   242   7 N    2.995 --   244 C    1.026   292 H    0.946   243 H    0.945
   243   1 H    0.969 --   242 N    0.945
   244   6 C    3.967 --   242 N    1.026   246 C    0.965   245 H    0.939
                           259 C    0.929
   245   1 H    0.981 --   244 C    0.939
   246   6 C    3.990 --   248 C    1.007   252 C    0.994   244 C    0.965
                           247 H    0.962
   247   1 H    0.995 --   246 C    0.962
   248   6 C    3.992 --   246 C    1.007   249 H    0.984   251 H    0.982
                           250 H    0.973
   249   1 H    0.998 --   248 C    0.984
   250   1 H    0.998 --   248 C    0.973
   251   1 H    0.998 --   248 C    0.982
   252   6 C    3.996 --   255 C    1.020   246 C    0.994   253 H    0.972
                           254 H    0.972
   253   1 H    0.999 --   252 C    0.972
   254   1 H    0.998 --   252 C    0.972
   255   6 C    3.991 --   252 C    1.020   256 H    0.985   257 H    0.984
                           258 H    0.981
   256   1 H    0.998 --   255 C    0.985
   257   1 H    0.999 --   255 C    0.984
   258   1 H    0.998 --   255 C    0.981
   259   6 C    3.926 --   260 O    1.612   261 N    1.301   244 C    0.929
   260   8 O    1.915 --   259 C    1.612   261 N    0.190
   261   7 N    3.472 --   259 C    1.301   263 C    0.974   262 H    0.906
                           260 O    0.190
   262   1 H    0.951 --   261 N    0.906
   263   6 C    3.961 --   261 N    0.974   278 C    0.974   264 H    0.957
                           265 C    0.941
   264   1 H    0.994 --   263 C    0.957
   265   6 C    3.980 --   267 C    1.007   271 C    0.998   266 H    0.951
                           263 C    0.941
   266   1 H    0.995 --   265 C    0.951
   267   6 C    3.988 --   265 C    1.007   268 H    0.983   270 H    0.982
                           269 H    0.976
   268   1 H    0.997 --   267 C    0.983
   269   1 H    0.995 --   267 C    0.976
   270   1 H    0.999 --   267 C    0.982
   271   6 C    3.994 --   274 C    1.011   265 C    0.998   273 H    0.974
                           272 H    0.969
   272   1 H    0.998 --   271 C    0.969
   273   1 H    0.998 --   271 C    0.974
Note: The following floating-point exceptions are signalling: IEEE_UNDERFLOW_FLAG IEEE_DENORMAL
normal termination of xtb
   274   6 C    3.993 --   271 C    1.011   277 H    0.987   276 H    0.981
                           275 H    0.978
   275   1 H    0.998 --   274 C    0.978
   276   1 H    0.998 --   274 C    0.981
   277   1 H    0.999 --   274 C    0.987
   278   6 C    3.881 --   279 O    1.896   263 C    0.974   293 H    0.938
   279   8 O    2.063 --   278 C    1.896
   280   1 H    0.959 --    60 N    0.945
   281   1 H    0.995 --    79 C    0.937
   282   1 H    0.957 --    81 N    0.944
   283   1 H    0.994 --   111 C    0.936
   284   1 H    0.962 --   113 N    0.948
   285   1 H    0.992 --   135 C    0.935
   286   1 H    0.971 --   137 N    0.954
   287   1 H    0.994 --   202 C    0.940
   288   1 H    0.962 --   204 N    0.946
   289   1 H    0.990 --   223 C    0.934
   290   1 H    0.962 --   225 N    0.947
   291   1 H    0.994 --   240 C    0.938
   292   1 H    0.962 --   242 N    0.946
   293   1 H    0.994 --   278 C    0.938
 ---------------------------------------------------------------------------

Topologies differ in total number of bonds
Writing topology from bond orders to xtbtopo.mol

molecular dipole:
                 x           y           z       tot (Debye)
 q only:      -11.172     -21.192     -12.062
   full:      -10.366     -20.801     -12.365      66.911
molecular quadrupole (traceless):
                xx          xy          yy          xz          yz          zz
 q only:      732.273   -2775.442    -452.635   -2518.722   -3723.669    -279.638
  q+dip:      823.149   -2694.990    -410.448   -2440.149   -3693.074    -412.701
   full:      828.189   -2692.420    -410.370   -2444.289   -3693.520    -417.820


           -------------------------------------------------
          | TOTAL ENERGY             -449.769577911253 Eh   |
          | GRADIENT NORM               0.344200374362 Eh/α |
          | HOMO-LUMO GAP               0.312840053828 eV   |
           -------------------------------------------------

------------------------------------------------------------------------
 * finished run on 2026/01/05 at 09:06:30.947     
------------------------------------------------------------------------
 total:
 * wall-time:     0 d,  0 h,  0 min,  3.373 sec
 *  cpu-time:     0 d,  0 h,  0 min, 49.039 sec
 * ratio c/w:    14.539 speedup
 SCF:
 * wall-time:     0 d,  0 h,  0 min,  3.244 sec
 *  cpu-time:     0 d,  0 h,  0 min, 47.158 sec
 * ratio c/w:    14.539 speedup

