      -----------------------------------------------------------      
     |                   =====================                   |     
     |                           x T B                           |     
     |                   =====================                   |     
     |                         S. Grimme                         |     
     |          Mulliken Center for Theoretical Chemistry        |     
     |                    University of Bonn                     |     
      -----------------------------------------------------------      

   * xtb version 6.7.1 (edcfbbe) compiled by 'conda@c0858423619e' on 2025-09-04

   xtb is free software: you can redistribute it and/or modify it under
   the terms of the GNU Lesser General Public License as published by
   the Free Software Foundation, either version 3 of the License, or
   (at your option) any later version.
   
   xtb is distributed in the hope that it will be useful,
   but WITHOUT ANY WARRANTY; without even the implied warranty of
   MERCHANTABILITY or FITNESS FOR A PARTICULAR PURPOSE.  See the
   GNU Lesser General Public License for more details.
   
   Cite this work as:
   * C. Bannwarth, E. Caldeweyher, S. Ehlert, A. Hansen, P. Pracht,
     J. Seibert, S. Spicher, S. Grimme, WIREs Comput. Mol. Sci., 2020, 11,
     e01493. DOI: 10.1002/wcms.1493
   
   for GFN2-xTB:
   * C. Bannwarth, S. Ehlert and S. Grimme., J. Chem. Theory Comput., 2019,
     15, 1652-1671. DOI: 10.1021/acs.jctc.8b01176
   for GFN1-xTB:
   * S. Grimme, C. Bannwarth, P. Shushkov, J. Chem. Theory Comput., 2017,
     13, 1989-2009. DOI: 10.1021/acs.jctc.7b00118
   for GFN0-xTB:
   * P. Pracht, E. Caldeweyher, S. Ehlert, S. Grimme, ChemRxiv, 2019, preprint.
     DOI: 10.26434/chemrxiv.8326202.v1
   for GFN-FF:
   * S. Spicher and S. Grimme, Angew. Chem. Int. Ed., 2020, 59, 15665-15673.
     DOI: 10.1002/anie.202004239
   
   for ALPB and GBSA implicit solvation:
   * S. Ehlert, M. Stahn, S. Spicher, S. Grimme, J. Chem. Theory Comput.,
     2021, 17, 4250-4261. DOI: 10.1021/acs.jctc.1c00471
   
   for ddCOSMO and CPCM-X implicit solvation:
   * M. Stahn, S. Ehlert, S. Grimme, J. Phys. Chem. A,
     2023, XX, XXXX-XXXX. DOI: 10.1021/acs.jpca.3c04382
   
   for DFT-D4:
   * E. Caldeweyher, C. Bannwarth and S. Grimme, J. Chem. Phys., 2017,
     147, 034112. DOI: 10.1063/1.4993215
   * E. Caldeweyher, S. Ehlert, A. Hansen, H. Neugebauer, S. Spicher,
     C. Bannwarth and S. Grimme, J. Chem. Phys., 2019, 150, 154122.
     DOI: 10.1063/1.5090222
   * E. Caldeweyher, J.-M. Mewes, S. Ehlert and S. Grimme, Phys. Chem. Chem. Phys.
     2020, 22, 8499-8512. DOI: 10.1039/D0CP00502A
   
   for sTDA-xTB:
   * S. Grimme and C. Bannwarth, J. Chem. Phys., 2016, 145, 054103.
     DOI: 10.1063/1.4959605
   
   in the mass-spec context:
   * V. Asgeirsson, C. Bauer and S. Grimme, Chem. Sci., 2017, 8, 4879.
     DOI: 10.1039/c7sc00601b
   * J. Koopman and S. Grimme, ACS Omega 2019, 4, 12, 15120-15133.
     DOI: 10.1021/acsomega.9b02011
   
   for metadynamics refer to:
   * S. Grimme, J. Chem. Theory Comput., 2019, 155, 2847-2862
     DOI: 10.1021/acs.jctc.9b00143
   
   for SPH calculations refer to:
   * S. Spicher and S. Grimme, J. Chem. Theory Comput., 2021, 17, 1701-1714
     DOI: 10.1021/acs.jctc.0c01306
   
   for ONIOM refer to:
   * C. Plett, A. Katbashev, S. Ehlert, S. Grimme, M. Bursch,
     Phys. Chem. Chem. Phys., 2023, 25, 17860-17868. DOI: 10.1039/D3CP02178E
   
   for DIPRO refer to:
   * J. Kohn, N. Gildemeister, S. Grimme, D. Fazzi, A. Hansen,
     J. Chem. Phys., 2023, just accepted.
   
   for PTB refer to:
   * S. Grimme, M. Mueller, A. Hansen, J. Chem. Phys., 2023, 158, 124111.
     DOI: 10.1063/5.0137838
   
   with help from (in alphabetical order)
   P. Atkinson, C. Bannwarth, F. Bohle, G. Brandenburg, E. Caldeweyher
   M. Checinski, S. Dohm, S. Ehlert, S. Ehrlich, I. Gerasimov, C. Hölzer
   A. Katbashev, J. Kohn, J. Koopman, C. Lavigne, S. Lehtola, F. März, M. Müller,
   F. Musil, H. Neugebauer, J. Pisarek, C. Plett, P. Pracht, F. Pultar,
   J. Seibert, P. Shushkov, S. Spicher, M. Stahn, M. Steiner, T. Strunk,
   J. Stückrath, T. Rose, and J. Unsleber
   
 * started run on 2026/01/05 at 09:07:44.727     
   ID    Z sym.   atoms
    1    6 C      1, 3-11, 14-16, 18, 20, 21, 24-29, 32
    2    7 N      2, 22
    3    8 O      12, 13, 17, 30, 31
    4   16 S      19, 23
    5    1 H      33-59

           -------------------------------------------------
          |                Calculation Setup                |
           -------------------------------------------------

          program call               : xtb /home/antonio_mesquita/Documentos/gmx_ISA_project/testes_arquivos_primeiros/gmx_ISA_testes/testes_qm_xtb/QM_analysis/QM_FRAMES_CAPPED/frame_4800ps/ligand_isolated_4800ps.xyz --gfn 2 --alpb water --chrg 1 --etemp 1500 --cycles 1000
          coordinate file            : /home/antonio_mesquita/Documentos/gmx_ISA_project/testes_arquivos_primeiros/gmx_ISA_testes/testes_qm_xtb/QM_analysis/QM_FRAMES_CAPPED/frame_4800ps/ligand_isolated_4800ps.xyz
          omp threads                :                    16


           -------------------------------------------------
          |                 G F N 2 - x T B                 |
           -------------------------------------------------

        Reference                      10.1021/acs.jctc.8b01176
      * Hamiltonian:
        H0-scaling (s, p, d)           1.850000    2.230000    2.230000
        zeta-weighting                 0.500000
      * Dispersion:
        s8                             2.700000
        a1                             0.520000
        a2                             5.000000
        s9                             5.000000
      * Repulsion:
        kExp                           1.500000    1.000000
        rExp                           1.000000
      * Coulomb:
        alpha                          2.000000
        third order                    shell-resolved
        anisotropic                    true
        a3                             3.000000
        a5                             4.000000
        cn-shift                       1.200000
        cn-exp                         4.000000
        max-rad                        5.000000

      * Solvation model:               ALPB
        Solvent                        water
        Parameter file                 internal GFN2-xTB/ALPB
        Dielectric constant                8.0200E+01
        Reference state                gsolv [1 M gas/solution]
        Free energy shift                  1.0808E-03 Eh       6.7819E-01 kcal/mol
        Temperature                        2.9815E+02 K
        Density                            1.0000E+00 kg/L
        Solvent mass                       1.8000E+01 g/mol
        Interaction kernel             P16
        Born radius scaling (c1)           1.4744E+00
        Born radii integrator          GBOBC
        Born offset                        0.0000E+00 a0       0.0000E+00 AA
        H-bond correction              true
        Ion screening                  false
        Surface tension                    1.0000E-05 Eh       1.5569E+01 dyn/cm
        Grid points                               230 per atom

          ...................................................
          :                      SETUP                      :
          :.................................................:
          :  # basis functions                 167          :
          :  # atomic orbitals                 165          :
          :  # shells                           93          :
          :  # electrons                       170          :
          :  max. iterations                   250          :
          :  Hamiltonian                  GFN2-xTB          :
          :  restarted?                      false          :
          :  GBSA solvation                   true          :
          :  PC potential                    false          :
          :  electronic temp.         1500.0000000     K    :
          :  accuracy                    1.0000000          :
          :  -> integral cutoff          0.2500000E+02      :
          :  -> integral neglect         0.1000000E-07      :
          :  -> SCF convergence          0.1000000E-05 Eh   :
          :  -> wf. convergence          0.1000000E-03 e    :
          :  Broyden damping             0.4000000          :
          :  net charge                          1          :
          :  unpaired electrons                  0          :
          ...................................................

 iter      E             dE          RMSdq      gap      omega  full diag
   1    -96.2297728 -0.962298E+02  0.497E+00    0.99       0.0  T
   2    -96.2635387 -0.337659E-01  0.360E+00    0.28       1.0  T
   3    -96.3278308 -0.642921E-01  0.269E+00    1.50       1.0  T
   4    -96.4128720 -0.850412E-01  0.139E+00    0.65       1.0  T
   5    -96.3953047  0.175673E-01  0.114E+00    0.94       1.0  T
   6    -96.4343169 -0.390122E-01  0.198E-01    0.39       1.0  T
   7    -96.4346039 -0.287026E-03  0.101E-01    0.36       1.0  T
   8    -96.4346877 -0.837498E-04  0.595E-02    0.38       1.0  T
   9    -96.4347378 -0.500903E-04  0.260E-02    0.37       1.0  T
  10    -96.4347449 -0.709411E-05  0.185E-02    0.38       1.0  T
  11    -96.4347482 -0.329849E-05  0.130E-02    0.37       1.0  T
  12    -96.4347512 -0.299326E-05  0.442E-03    0.38       2.9  T
  13    -96.4347514 -0.295763E-06  0.924E-04    0.38      14.1  T
  14    -96.4347514  0.110952E-07  0.101E-03    0.38      12.9  T
  15    -96.4347515 -0.177225E-07  0.322E-04    0.38      40.4  T

   *** convergence criteria satisfied after 15 iterations ***

         #    Occupation            Energy/Eh            Energy/eV
      -------------------------------------------------------------
         1        2.0000           -0.8030871             -21.8531
       ...           ...                  ...                  ...
        79        1.9996           -0.4328850             -11.7794
        80        1.9981           -0.4257897             -11.5863
        81        1.9972           -0.4239923             -11.5374
        82        1.9939           -0.4203367             -11.4379
        83        1.9893           -0.4176759             -11.3655
        84        1.9788           -0.4143993             -11.2764
        85        1.6421           -0.4000853             -10.8869 (HOMO)
        86        0.4018           -0.3862903             -10.5115 (LUMO)
        87                         -0.2919889              -7.9454
        88                         -0.2647096              -7.2031
        89                         -0.2491923              -6.7809
        90                         -0.2457375              -6.6869
       ...                                ...                  ...
       165                          1.0168902              27.6710
      -------------------------------------------------------------
                  HL-Gap            0.0137951 Eh            0.3754 eV
             Fermi-level           -0.3928485 Eh          -10.6900 eV

 SCC (total)                   0 d,  0 h,  0 min,  0.236 sec
 SCC setup                      ...        0 min,  0.002 sec (  0.768%)
 Dispersion                     ...        0 min,  0.002 sec (  0.748%)
 classical contributions        ...        0 min,  0.000 sec (  0.120%)
 integral evaluation            ...        0 min,  0.015 sec (  6.136%)
 iterations                     ...        0 min,  0.173 sec ( 73.309%)
 molecular gradient             ...        0 min,  0.044 sec ( 18.792%)
 printout                       ...        0 min,  0.000 sec (  0.115%)

         :::::::::::::::::::::::::::::::::::::::::::::::::::::
         ::                     SUMMARY                     ::
         :::::::::::::::::::::::::::::::::::::::::::::::::::::
         :: total energy             -95.284430377223 Eh    ::
         :: total w/o Gsasa/hb       -95.280487094380 Eh    ::
         :: gradient norm              0.149949153357 Eh/a0 ::
         :: HOMO-LUMO gap              0.375383083049 eV    ::
         ::.................................................::
         :: SCC energy               -96.433760188309 Eh    ::
         :: -> isotropic ES            0.241512626290 Eh    ::
         :: -> anisotropic ES         -0.027564573425 Eh    ::
         :: -> anisotropic XC          0.040637802008 Eh    ::
         :: -> dispersion             -0.069796119935 Eh    ::
         :: -> Gsolv                  -0.094938084179 Eh    ::
         ::    -> Gelec               -0.090994801336 Eh    ::
         ::    -> Gsasa                0.003372900997 Eh    ::
         ::    -> Ghb                 -0.008396943538 Eh    ::
         ::    -> Gshift               0.001080759698 Eh    ::
         :: repulsion energy           1.149329811087 Eh    ::
         :: add. restraining           0.000000000000 Eh    ::
         :: total charge               1.000000000569 e     ::
         :::::::::::::::::::::::::::::::::::::::::::::::::::::

           -------------------------------------------------
          |                Property Printout                |
           -------------------------------------------------

    * Orbital Energies and Occupations

         #    Occupation            Energy/Eh            Energy/eV
      -------------------------------------------------------------
         1        2.0000           -0.8030871             -21.8531
       ...           ...                  ...                  ...
        73        2.0000           -0.4607471             -12.5376
        74        2.0000           -0.4539936             -12.3538
        75        2.0000           -0.4467761             -12.1574
        76        1.9999           -0.4422658             -12.0347
        77        1.9998           -0.4365205             -11.8783
        78        1.9996           -0.4331188             -11.7858
        79        1.9996           -0.4328850             -11.7794
        80        1.9981           -0.4257897             -11.5863
        81        1.9972           -0.4239923             -11.5374
        82        1.9939           -0.4203367             -11.4379
        83        1.9893           -0.4176759             -11.3655
        84        1.9788           -0.4143993             -11.2764
        85        1.6421           -0.4000853             -10.8869 (HOMO)
        86        0.4018           -0.3862903             -10.5115 (LUMO)
        87                         -0.2919889              -7.9454
        88                         -0.2647096              -7.2031
        89                         -0.2491923              -6.7809
        90                         -0.2457375              -6.6869
        91                         -0.2410789              -6.5601
        92                         -0.2387258              -6.4961
        93                         -0.2353064              -6.4030
        94                         -0.1868807              -5.0853
        95                         -0.1830906              -4.9821
        96                         -0.1514557              -4.1213
       ...                                ...                  ...
       165                          1.0168902              27.6710
      -------------------------------------------------------------
                  HL-Gap            0.0137951 Eh            0.3754 eV
             Fermi-level           -0.3928485 Eh          -10.6900 eV

     #   Z          covCN         q      C6AA      α(0)
     1   6 C        2.744     0.275    22.350     7.741
     2   7 N        2.686    -0.072    22.643     7.067
     3   6 C        2.869     0.093    25.932     8.347
     4   6 C        3.683     0.067    19.646     6.347
     5   6 C        3.810    -0.083    22.067     6.687
     6   6 C        2.967     0.036    27.199     8.555
     7   6 C        2.916    -0.036    28.893     8.814
     8   6 C        2.915    -0.029    28.717     8.787
     9   6 C        2.908    -0.031    28.785     8.797
    10   6 C        2.916    -0.029    28.727     8.789
    11   6 C        2.908    -0.033    28.818     8.803
    12   8 O        1.708    -0.239    17.962     5.722
    13   8 O        0.857    -0.438    22.446     6.352
    14   6 C        2.705     0.348    21.090     7.517
    15   6 C        3.751    -0.130    23.068     6.849
    16   6 C        3.843    -0.007    20.666     6.467
    17   8 O        0.859    -0.400    21.686     6.244
    18   6 C        3.787    -0.055    21.568     6.615
    19  16 S        1.961     0.041   139.387    19.871
    20   6 C        3.789    -0.066    21.784     6.647
    21   6 C        3.863     0.019    20.219     6.394
    22   7 N        2.728    -0.261    26.773     7.685
    23  16 S        3.811     1.155   102.326    17.025
    24   6 C        2.961    -0.093    30.324     9.032
    25   6 C        2.925    -0.031    28.765     8.795
    26   6 C        2.950    -0.034    28.858     8.811
    27   6 C        2.946     0.039    27.131     8.543
    28   6 C        2.943    -0.037    28.924     8.821
    29   6 C        2.956    -0.038    28.931     8.822
    30   8 O        0.860    -0.642    27.163     6.988
    31   8 O        0.860    -0.642    27.180     6.990
    32   6 C        3.750    -0.135    23.171     6.865
    33   1 H        0.860     0.277     0.786     1.388
    34   1 H        0.924     0.081     1.973     2.197
    35   1 H        0.923     0.076     2.025     2.225
    36   1 H        0.924     0.151     1.382     1.838
    37   1 H        0.924     0.119     1.621     1.991
    38   1 H        0.924     0.057     2.237     2.339
    39   1 H        0.925     0.055     2.263     2.353
    40   1 H        0.925     0.055     2.256     2.349
    41   1 H        0.925     0.059     2.216     2.328
    42   1 H        0.925     0.075     2.028     2.227
    43   1 H        0.923     0.070     2.089     2.260
    44   1 H        0.924     0.070     2.086     2.259
    45   1 H        0.924     0.080     1.984     2.202
    46   1 H        0.924     0.064     2.158     2.297
    47   1 H        0.924     0.083     1.947     2.182
    48   1 H        0.924     0.119     1.620     1.991
    49   1 H        0.924     0.122     1.596     1.976
    50   1 H        0.923     0.128     1.547     1.945
    51   1 H        0.923     0.116     1.642     2.004
    52   1 H        0.924     0.111     1.687     2.031
    53   1 H        0.925     0.083     1.948     2.183
    54   1 H        0.925     0.082     1.960     2.190
    55   1 H        0.925     0.066     2.133     2.284
    56   1 H        0.925     0.060     2.201     2.320
    57   1 H        0.924     0.065     2.145     2.291
    58   1 H        0.925     0.082     1.956     2.187
    59   1 H        0.923     0.084     1.939     2.178

 Mol. C6AA /au·bohr⁶  :      43352.954807
 Mol. C8AA /au·bohr⁸  :    1117015.912943
 Mol. α(0) /au        :        323.803813


Wiberg/Mayer (AO) data.
largest (>0.10) Wiberg bond orders for each atom

 ---------------------------------------------------------------------------
     #   Z sym  total        # sym  WBO       # sym  WBO       # sym  WBO
 ---------------------------------------------------------------------------
     1   6 C    3.877 --    17 O    1.739     2 N    1.128    21 C    0.925
     2   7 N    3.556 --     3 C    1.309     1 C    1.128    33 H    0.863
                            17 O    0.108
     3   6 C    3.663 --     2 N    1.309     5 C    1.083    14 C    1.023
     4   6 C    3.896 --    15 C    1.013    35 H    0.960    34 H    0.958
                            12 O    0.923
     5   6 C    3.949 --     3 C    1.083    37 H    0.942     6 C    0.939
                            36 H    0.887
     6   6 C    3.941 --    11 C    1.415     7 C    1.384     5 C    0.939
     7   6 C    3.969 --     8 C    1.440     6 C    1.384    38 H    0.966
                            10 C    0.107
     8   6 C    3.977 --     7 C    1.440     9 C    1.430    39 H    0.965
                            11 C    0.106
     9   6 C    3.962 --     8 C    1.430    10 C    1.426    40 H    0.967
    10   6 C    3.969 --    11 C    1.432     9 C    1.426    41 H    0.968
                             7 C    0.107
    11   6 C    3.973 --    10 C    1.432     6 C    1.415    42 H    0.960
                             8 C    0.106
    12   8 O    2.321 --    14 C    1.159     4 C    0.923    13 O    0.186
    13   8 O    1.956 --    14 C    1.651    12 O    0.186
    14   6 C    3.910 --    13 O    1.651    12 O    1.159     3 C    1.023
    15   6 C    3.982 --     4 C    1.013    43 H    0.984    44 H    0.981
                            45 H    0.978
    16   6 C    3.949 --    18 C    0.999    22 N    0.979    46 H    0.959
                            47 H    0.955
    17   8 O    1.992 --     1 C    1.739     2 N    0.108
    18   6 C    3.946 --    16 C    0.999    19 S    0.995    49 H    0.957
                            48 H    0.952
    19  16 S    2.127 --    20 C    1.001    18 C    0.995
    20   6 C    3.945 --    19 S    1.001    21 C    0.983    51 H    0.955
                            50 H    0.946
    21   6 C    3.951 --    22 N    0.988    20 C    0.983    52 H    0.931
                             1 C    0.925
    22   7 N    3.182 --    21 C    0.988    16 C    0.979    23 S    0.874
    23  16 S    4.815 --    31 O    1.557    30 O    1.546    22 N    0.874
                            24 C    0.739
    24   6 C    3.941 --    29 C    1.422    25 C    1.388    23 S    0.739
    25   6 C    3.978 --    26 C    1.460    24 C    1.388    53 H    0.962
                            28 C    0.106
    26   6 C    3.983 --    25 C    1.460    27 C    1.388    54 H    0.963
                            29 C    0.103
    27   6 C    3.976 --    28 C    1.410    26 C    1.388    32 C    1.031
    28   6 C    3.983 --    29 C    1.431    27 C    1.410    55 H    0.965
                            25 C    0.106
    29   6 C    3.984 --    28 C    1.431    24 C    1.422    56 H    0.965
                            26 C    0.103
    30   8 O    1.853 --    23 S    1.546    31 O    0.108
    31   8 O    1.848 --    23 S    1.557    30 O    0.108
    32   6 C    3.985 --    27 C    1.031    57 H    0.983    58 H    0.965
                            59 H    0.961
    33   1 H    0.922 --     2 N    0.863
    34   1 H    0.990 --     4 C    0.958
    35   1 H    0.992 --     4 C    0.960
    36   1 H    0.954 --     5 C    0.887
    37   1 H    0.984 --     5 C    0.942
    38   1 H    0.996 --     7 C    0.966
    39   1 H    0.992 --     8 C    0.965
    40   1 H    0.993 --     9 C    0.967
    41   1 H    0.995 --    10 C    0.968
    42   1 H    0.993 --    11 C    0.960
    43   1 H    0.995 --    15 C    0.984
    44   1 H    0.994 --    15 C    0.981
    45   1 H    0.993 --    15 C    0.978
    46   1 H    0.990 --    16 C    0.959
    47   1 H    0.993 --    16 C    0.955
    48   1 H    0.967 --    18 C    0.952
    49   1 H    0.983 --    18 C    0.957
    50   1 H    0.963 --    20 C    0.946
    51   1 H    0.983 --    20 C    0.955
    52   1 H    0.986 --    21 C    0.931
    53   1 H    0.993 --    25 C    0.962
    54   1 H    0.992 --    26 C    0.963
    55   1 H    0.995 --    28 C    0.965
    56   1 H    0.996 --    29 C    0.965
    57   1 H    0.995 --    32 C    0.983
    58   1 H    0.992 --    32 C    0.965
    59   1 H    0.991 --    32 C    0.961
 ---------------------------------------------------------------------------

Topologies differ in total number of bonds
Writing topology from bond orders to xtbtopo.mol

molecular dipole:
                 x           y           z       tot (Debye)
 q only:       28.758      31.434       5.294
   full:       28.203      31.544       5.007     108.302
molecular quadrupole (traceless):
                xx          xy          yy          xz          yz          zz
 q only:      278.109    1300.775     630.041     190.662     255.376    -908.150
  q+dip:      248.592    1280.298     649.382     172.643     242.427    -897.974
   full:      249.791    1282.001     646.368     174.554     244.671    -896.159


           -------------------------------------------------
          | TOTAL ENERGY              -95.284430377223 Eh   |
          | GRADIENT NORM               0.149949153357 Eh/α |
          | HOMO-LUMO GAP               0.375383083049 eV   |
           -------------------------------------------------

------------------------------------------------------------------------
Note: The following floating-point exceptions are signalling: IEEE_UNDERFLOW_FLAG IEEE_DENORMAL
normal termination of xtb
 * finished run on 2026/01/05 at 09:07:44.983     
------------------------------------------------------------------------
 total:
 * wall-time:     0 d,  0 h,  0 min,  0.255 sec
 *  cpu-time:     0 d,  0 h,  0 min,  3.827 sec
 * ratio c/w:    14.993 speedup
 SCF:
 * wall-time:     0 d,  0 h,  0 min,  0.237 sec
 *  cpu-time:     0 d,  0 h,  0 min,  3.567 sec
 * ratio c/w:    15.057 speedup

