      -----------------------------------------------------------      
     |                   =====================                   |     
     |                           x T B                           |     
     |                   =====================                   |     
     |                         S. Grimme                         |     
     |          Mulliken Center for Theoretical Chemistry        |     
     |                    University of Bonn                     |     
      -----------------------------------------------------------      

   * xtb version 6.7.1 (edcfbbe) compiled by 'conda@c0858423619e' on 2025-09-04

   xtb is free software: you can redistribute it and/or modify it under
   the terms of the GNU Lesser General Public License as published by
   the Free Software Foundation, either version 3 of the License, or
   (at your option) any later version.
   
   xtb is distributed in the hope that it will be useful,
   but WITHOUT ANY WARRANTY; without even the implied warranty of
   MERCHANTABILITY or FITNESS FOR A PARTICULAR PURPOSE.  See the
   GNU Lesser General Public License for more details.
   
   Cite this work as:
   * C. Bannwarth, E. Caldeweyher, S. Ehlert, A. Hansen, P. Pracht,
     J. Seibert, S. Spicher, S. Grimme, WIREs Comput. Mol. Sci., 2020, 11,
     e01493. DOI: 10.1002/wcms.1493
   
   for GFN2-xTB:
   * C. Bannwarth, S. Ehlert and S. Grimme., J. Chem. Theory Comput., 2019,
     15, 1652-1671. DOI: 10.1021/acs.jctc.8b01176
   for GFN1-xTB:
   * S. Grimme, C. Bannwarth, P. Shushkov, J. Chem. Theory Comput., 2017,
     13, 1989-2009. DOI: 10.1021/acs.jctc.7b00118
   for GFN0-xTB:
   * P. Pracht, E. Caldeweyher, S. Ehlert, S. Grimme, ChemRxiv, 2019, preprint.
     DOI: 10.26434/chemrxiv.8326202.v1
   for GFN-FF:
   * S. Spicher and S. Grimme, Angew. Chem. Int. Ed., 2020, 59, 15665-15673.
     DOI: 10.1002/anie.202004239
   
   for ALPB and GBSA implicit solvation:
   * S. Ehlert, M. Stahn, S. Spicher, S. Grimme, J. Chem. Theory Comput.,
     2021, 17, 4250-4261. DOI: 10.1021/acs.jctc.1c00471
   
   for ddCOSMO and CPCM-X implicit solvation:
   * M. Stahn, S. Ehlert, S. Grimme, J. Phys. Chem. A,
     2023, XX, XXXX-XXXX. DOI: 10.1021/acs.jpca.3c04382
   
   for DFT-D4:
   * E. Caldeweyher, C. Bannwarth and S. Grimme, J. Chem. Phys., 2017,
     147, 034112. DOI: 10.1063/1.4993215
   * E. Caldeweyher, S. Ehlert, A. Hansen, H. Neugebauer, S. Spicher,
     C. Bannwarth and S. Grimme, J. Chem. Phys., 2019, 150, 154122.
     DOI: 10.1063/1.5090222
   * E. Caldeweyher, J.-M. Mewes, S. Ehlert and S. Grimme, Phys. Chem. Chem. Phys.
     2020, 22, 8499-8512. DOI: 10.1039/D0CP00502A
   
   for sTDA-xTB:
   * S. Grimme and C. Bannwarth, J. Chem. Phys., 2016, 145, 054103.
     DOI: 10.1063/1.4959605
   
   in the mass-spec context:
   * V. Asgeirsson, C. Bauer and S. Grimme, Chem. Sci., 2017, 8, 4879.
     DOI: 10.1039/c7sc00601b
   * J. Koopman and S. Grimme, ACS Omega 2019, 4, 12, 15120-15133.
     DOI: 10.1021/acsomega.9b02011
   
   for metadynamics refer to:
   * S. Grimme, J. Chem. Theory Comput., 2019, 155, 2847-2862
     DOI: 10.1021/acs.jctc.9b00143
   
   for SPH calculations refer to:
   * S. Spicher and S. Grimme, J. Chem. Theory Comput., 2021, 17, 1701-1714
     DOI: 10.1021/acs.jctc.0c01306
   
   for ONIOM refer to:
   * C. Plett, A. Katbashev, S. Ehlert, S. Grimme, M. Bursch,
     Phys. Chem. Chem. Phys., 2023, 25, 17860-17868. DOI: 10.1039/D3CP02178E
   
   for DIPRO refer to:
   * J. Kohn, N. Gildemeister, S. Grimme, D. Fazzi, A. Hansen,
     J. Chem. Phys., 2023, just accepted.
   
   for PTB refer to:
   * S. Grimme, M. Mueller, A. Hansen, J. Chem. Phys., 2023, 158, 124111.
     DOI: 10.1063/5.0137838
   
   with help from (in alphabetical order)
   P. Atkinson, C. Bannwarth, F. Bohle, G. Brandenburg, E. Caldeweyher
   M. Checinski, S. Dohm, S. Ehlert, S. Ehrlich, I. Gerasimov, C. Hölzer
   A. Katbashev, J. Kohn, J. Koopman, C. Lavigne, S. Lehtola, F. März, M. Müller,
   F. Musil, H. Neugebauer, J. Pisarek, C. Plett, P. Pracht, F. Pultar,
   J. Seibert, P. Shushkov, S. Spicher, M. Stahn, M. Steiner, T. Strunk,
   J. Stückrath, T. Rose, and J. Unsleber
   
 * started run on 2026/01/05 at 09:08:00.090     
   ID    Z sym.   atoms
    1    6 C      1, 3-11, 14-16, 18, 20, 21, 24-29, 32
    2    7 N      2, 22
    3    8 O      12, 13, 17, 30, 31
    4   16 S      19, 23
    5    1 H      33-59

           -------------------------------------------------
          |                Calculation Setup                |
           -------------------------------------------------

          program call               : xtb /home/antonio_mesquita/Documentos/gmx_ISA_project/testes_arquivos_primeiros/gmx_ISA_testes/testes_qm_xtb/QM_analysis/QM_FRAMES_CAPPED/frame_800ps/ligand_isolated_800ps.xyz --gfn 2 --alpb water --chrg 1 --etemp 1500 --cycles 1000
          coordinate file            : /home/antonio_mesquita/Documentos/gmx_ISA_project/testes_arquivos_primeiros/gmx_ISA_testes/testes_qm_xtb/QM_analysis/QM_FRAMES_CAPPED/frame_800ps/ligand_isolated_800ps.xyz
          omp threads                :                    16


           -------------------------------------------------
          |                 G F N 2 - x T B                 |
           -------------------------------------------------

        Reference                      10.1021/acs.jctc.8b01176
      * Hamiltonian:
        H0-scaling (s, p, d)           1.850000    2.230000    2.230000
        zeta-weighting                 0.500000
      * Dispersion:
        s8                             2.700000
        a1                             0.520000
        a2                             5.000000
        s9                             5.000000
      * Repulsion:
        kExp                           1.500000    1.000000
        rExp                           1.000000
      * Coulomb:
        alpha                          2.000000
        third order                    shell-resolved
        anisotropic                    true
        a3                             3.000000
        a5                             4.000000
        cn-shift                       1.200000
        cn-exp                         4.000000
        max-rad                        5.000000

      * Solvation model:               ALPB
        Solvent                        water
        Parameter file                 internal GFN2-xTB/ALPB
        Dielectric constant                8.0200E+01
        Reference state                gsolv [1 M gas/solution]
        Free energy shift                  1.0808E-03 Eh       6.7819E-01 kcal/mol
        Temperature                        2.9815E+02 K
        Density                            1.0000E+00 kg/L
        Solvent mass                       1.8000E+01 g/mol
        Interaction kernel             P16
        Born radius scaling (c1)           1.4744E+00
        Born radii integrator          GBOBC
        Born offset                        0.0000E+00 a0       0.0000E+00 AA
        H-bond correction              true
        Ion screening                  false
        Surface tension                    1.0000E-05 Eh       1.5569E+01 dyn/cm
        Grid points                               230 per atom

          ...................................................
          :                      SETUP                      :
          :.................................................:
          :  # basis functions                 167          :
          :  # atomic orbitals                 165          :
          :  # shells                           93          :
          :  # electrons                       170          :
          :  max. iterations                   250          :
          :  Hamiltonian                  GFN2-xTB          :
          :  restarted?                      false          :
          :  GBSA solvation                   true          :
          :  PC potential                    false          :
          :  electronic temp.         1500.0000000     K    :
          :  accuracy                    1.0000000          :
          :  -> integral cutoff          0.2500000E+02      :
          :  -> integral neglect         0.1000000E-07      :
          :  -> SCF convergence          0.1000000E-05 Eh   :
          :  -> wf. convergence          0.1000000E-03 e    :
          :  Broyden damping             0.4000000          :
          :  net charge                          1          :
          :  unpaired electrons                  0          :
          ...................................................

 iter      E             dE          RMSdq      gap      omega  full diag
   1    -96.2439182 -0.962439E+02  0.498E+00    0.88       0.0  T
   2    -96.2599109 -0.159927E-01  0.346E+00    0.27       1.0  T
   3    -96.2964473 -0.365364E-01  0.271E+00    1.75       1.0  T
   4    -96.4121381 -0.115691E+00  0.137E+00    0.72       1.0  T
   5    -96.3948011  0.173370E-01  0.112E+00    0.97       1.0  T
   6    -96.4339702 -0.391691E-01  0.257E-01    0.41       1.0  T
   7    -96.4344511 -0.480910E-03  0.115E-01    0.38       1.0  T
   8    -96.4345664 -0.115239E-03  0.807E-02    0.36       1.0  T
   9    -96.4344285  0.137834E-03  0.103E-01    0.41       1.0  T
  10    -96.4346753 -0.246745E-03  0.235E-02    0.37       1.0  T
  11    -96.4346819 -0.657882E-05  0.922E-03    0.38       1.4  T
  12    -96.4346826 -0.755042E-06  0.836E-03    0.38       1.6  T
  13    -96.4346840 -0.139929E-05  0.161E-03    0.38       8.1  T
  14    -96.4346840 -0.291227E-07  0.109E-03    0.38      12.0  T
  15    -96.4346840 -0.132908E-07  0.384E-04    0.38      33.9  T
  16    -96.4346840 -0.135408E-08  0.225E-04    0.38      57.9  T

   *** convergence criteria satisfied after 16 iterations ***

         #    Occupation            Energy/Eh            Energy/eV
      -------------------------------------------------------------
         1        2.0000           -0.8049241             -21.9031
       ...           ...                  ...                  ...
        79        1.9999           -0.4348306             -11.8323
        80        1.9997           -0.4303470             -11.7103
        81        1.9983           -0.4228455             -11.5062
        82        1.9978           -0.4214968             -11.4695
        83        1.9883           -0.4136132             -11.2550
        84        1.9802           -0.4111189             -11.1871
        85        1.6432           -0.3964890             -10.7890 (HOMO)
        86        0.3928           -0.3825413             -10.4095 (LUMO)
        87                         -0.2766987              -7.5294
        88                         -0.2703810              -7.3574
        89                         -0.2560814              -6.9683
        90                         -0.2460373              -6.6950
       ...                                ...                  ...
       165                          1.0439991              28.4087
      -------------------------------------------------------------
                  HL-Gap            0.0139477 Eh            0.3795 eV
             Fermi-level           -0.3892338 Eh          -10.5916 eV

 SCC (total)                   0 d,  0 h,  0 min,  0.208 sec
 SCC setup                      ...        0 min,  0.002 sec (  0.808%)
 Dispersion                     ...        0 min,  0.002 sec (  0.777%)
 classical contributions        ...        0 min,  0.000 sec (  0.125%)
 integral evaluation            ...        0 min,  0.008 sec (  3.701%)
 iterations                     ...        0 min,  0.164 sec ( 78.938%)
 molecular gradient             ...        0 min,  0.031 sec ( 15.011%)
 printout                       ...        0 min,  0.001 sec (  0.631%)

         :::::::::::::::::::::::::::::::::::::::::::::::::::::
         ::                     SUMMARY                     ::
         :::::::::::::::::::::::::::::::::::::::::::::::::::::
         :: total energy             -95.286390955625 Eh    ::
         :: total w/o Gsasa/hb       -95.283144532502 Eh    ::
         :: gradient norm              0.132221475456 Eh/a0 ::
         :: HOMO-LUMO gap              0.379535652266 eV    ::
         ::.................................................::
         :: SCC energy               -96.433641481532 Eh    ::
         :: -> isotropic ES            0.236466084875 Eh    ::
         :: -> anisotropic ES         -0.023395591726 Eh    ::
         :: -> anisotropic XC          0.040017680716 Eh    ::
         :: -> dispersion             -0.068953773404 Eh    ::
         :: -> Gsolv                  -0.088585169238 Eh    ::
         ::    -> Gelec               -0.085338746115 Eh    ::
         ::    -> Gsasa                0.003965870027 Eh    ::
         ::    -> Ghb                 -0.008293052847 Eh    ::
         ::    -> Gshift               0.001080759698 Eh    ::
         :: repulsion energy           1.147250525907 Eh    ::
         :: add. restraining           0.000000000000 Eh    ::
         :: total charge               1.000000000150 e     ::
         :::::::::::::::::::::::::::::::::::::::::::::::::::::

           -------------------------------------------------
          |                Property Printout                |
           -------------------------------------------------

    * Orbital Energies and Occupations

         #    Occupation            Energy/Eh            Energy/eV
      -------------------------------------------------------------
         1        2.0000           -0.8049241             -21.9031
       ...           ...                  ...                  ...
        73        2.0000           -0.4581343             -12.4665
        74        2.0000           -0.4510471             -12.2736
        75        2.0000           -0.4437540             -12.0752
        76        2.0000           -0.4423820             -12.0378
        77        2.0000           -0.4415714             -12.0158
        78        1.9999           -0.4395279             -11.9602
        79        1.9999           -0.4348306             -11.8323
        80        1.9997           -0.4303470             -11.7103
        81        1.9983           -0.4228455             -11.5062
        82        1.9978           -0.4214968             -11.4695
        83        1.9883           -0.4136132             -11.2550
        84        1.9802           -0.4111189             -11.1871
        85        1.6432           -0.3964890             -10.7890 (HOMO)
        86        0.3928           -0.3825413             -10.4095 (LUMO)
        87                         -0.2766987              -7.5294
        88                         -0.2703810              -7.3574
        89                         -0.2560814              -6.9683
        90                         -0.2460373              -6.6950
        91                         -0.2405027              -6.5444
        92                         -0.2356971              -6.4136
        93                         -0.2327423              -6.3332
        94                         -0.1906798              -5.1887
        95                         -0.1775154              -4.8304
        96                         -0.1593553              -4.3363
       ...                                ...                  ...
       165                          1.0439991              28.4087
      -------------------------------------------------------------
                  HL-Gap            0.0139477 Eh            0.3795 eV
             Fermi-level           -0.3892338 Eh          -10.5916 eV

     #   Z          covCN         q      C6AA      α(0)
     1   6 C        2.743     0.285    22.175     7.710
     2   7 N        2.689    -0.085    22.896     7.107
     3   6 C        2.871     0.100    25.788     8.324
     4   6 C        3.688     0.067    19.644     6.344
     5   6 C        3.806    -0.086    22.129     6.697
     6   6 C        2.960     0.029    27.354     8.579
     7   6 C        2.921    -0.038    28.953     8.824
     8   6 C        2.916    -0.027    28.681     8.782
     9   6 C        2.914    -0.028    28.707     8.786
    10   6 C        2.910    -0.031    28.782     8.797
    11   6 C        2.922    -0.040    28.983     8.829
    12   8 O        1.705    -0.239    17.962     5.722
    13   8 O        0.856    -0.427    22.232     6.322
    14   6 C        2.709     0.354    20.991     7.499
    15   6 C        3.746    -0.135    23.166     6.865
    16   6 C        3.786    -0.011    20.793     6.495
    17   8 O        0.859    -0.380    21.279     6.185
    18   6 C        3.787    -0.050    21.491     6.603
    19  16 S        2.001     0.002   140.954    19.982
    20   6 C        3.789    -0.063    21.731     6.639
    21   6 C        3.907     0.026    20.081     6.370
    22   7 N        2.726    -0.267    26.897     7.703
    23  16 S        3.781     1.161   102.160    17.011
    24   6 C        2.970    -0.090    30.248     9.021
    25   6 C        2.945    -0.031    28.777     8.798
    26   6 C        2.916    -0.038    28.946     8.823
    27   6 C        2.961     0.038    27.148     8.546
    28   6 C        2.920    -0.032    28.808     8.802
    29   6 C        2.939    -0.028    28.712     8.788
    30   8 O        0.860    -0.639    27.094     6.979
    31   8 O        0.860    -0.648    27.336     7.010
    32   6 C        3.754    -0.140    23.258     6.877
    33   1 H        0.864     0.271     0.805     1.405
    34   1 H        0.923     0.081     1.971     2.195
    35   1 H        0.925     0.084     1.941     2.179
    36   1 H        0.924     0.135     1.497     1.914
    37   1 H        0.924     0.169     1.269     1.761
    38   1 H        0.924     0.061     2.191     2.315
    39   1 H        0.925     0.053     2.285     2.364
    40   1 H        0.925     0.051     2.304     2.374
    41   1 H        0.925     0.059     2.206     2.323
    42   1 H        0.925     0.057     2.235     2.338
    43   1 H        0.924     0.066     2.132     2.283
    44   1 H        0.923     0.068     2.104     2.268
    45   1 H        0.924     0.075     2.036     2.232
    46   1 H        0.924     0.094     1.837     2.119
    47   1 H        0.923     0.079     1.986     2.204
    48   1 H        0.924     0.085     1.926     2.170
    49   1 H        0.922     0.120     1.613     1.986
    50   1 H        0.924     0.108     1.715     2.048
    51   1 H        0.923     0.123     1.586     1.969
    52   1 H        0.923     0.110     1.693     2.035
    53   1 H        0.925     0.071     2.069     2.250
    54   1 H        0.925     0.089     1.885     2.147
    55   1 H        0.925     0.084     1.938     2.177
    56   1 H        0.924     0.073     2.056     2.242
    57   1 H        0.924     0.066     2.125     2.280
    58   1 H        0.924     0.069     2.093     2.262
    59   1 H        0.924     0.089     1.885     2.147

 Mol. C6AA /au·bohr⁶  :      43349.023348
 Mol. C8AA /au·bohr⁸  :    1117229.893897
 Mol. α(0) /au        :        323.804089


Wiberg/Mayer (AO) data.
largest (>0.10) Wiberg bond orders for each atom

 ---------------------------------------------------------------------------
     #   Z sym  total        # sym  WBO       # sym  WBO       # sym  WBO
 ---------------------------------------------------------------------------
     1   6 C    3.909 --    17 O    1.746     2 N    1.135    21 C    0.940
     2   7 N    3.534 --     3 C    1.280     1 C    1.135    33 H    0.850
                            17 O    0.119
     3   6 C    3.649 --     2 N    1.280     5 C    1.090    14 C    1.017
     4   6 C    3.899 --    15 C    1.015    35 H    0.960    34 H    0.960
                            12 O    0.922
     5   6 C    3.954 --     3 C    1.090     6 C    0.955    36 H    0.936
                            37 H    0.872
     6   6 C    3.948 --     7 C    1.408    11 C    1.387     5 C    0.955
     7   6 C    3.976 --     8 C    1.440     6 C    1.408    38 H    0.964
                            10 C    0.106
     8   6 C    3.972 --     7 C    1.440     9 C    1.421    39 H    0.967
                            11 C    0.106
     9   6 C    3.968 --    10 C    1.433     8 C    1.421    40 H    0.967
    10   6 C    3.978 --    11 C    1.442     9 C    1.433    41 H    0.965
                             7 C    0.106
    11   6 C    3.970 --    10 C    1.442     6 C    1.387    42 H    0.968
                             8 C    0.106
    12   8 O    2.320 --    14 C    1.149     4 C    0.922    13 O    0.192
    13   8 O    1.974 --    14 C    1.675    12 O    0.192
    14   6 C    3.909 --    13 O    1.675    12 O    1.149     3 C    1.017
    15   6 C    3.980 --     4 C    1.015    43 H    0.984    45 H    0.981
                            44 H    0.980
    16   6 C    3.936 --    18 C    0.989    22 N    0.985    46 H    0.955
                            47 H    0.954
    17   8 O    2.027 --     1 C    1.746     2 N    0.119
    18   6 C    3.942 --    19 S    0.993    16 C    0.989    49 H    0.957
                            48 H    0.957
    19  16 S    2.126 --    20 C    0.996    18 C    0.993
    20   6 C    3.951 --    19 S    0.996    21 C    0.983    50 H    0.955
                            51 H    0.945
    21   6 C    3.957 --    22 N    0.993    20 C    0.983     1 C    0.940
                            52 H    0.906
    22   7 N    3.167 --    21 C    0.993    16 C    0.985    23 S    0.874
    23  16 S    4.808 --    30 O    1.563    31 O    1.535    22 N    0.874
                            24 C    0.736
    24   6 C    3.933 --    25 C    1.402    29 C    1.396    23 S    0.736
    25   6 C    3.982 --    26 C    1.446    24 C    1.402    53 H    0.960
                            28 C    0.103
    26   6 C    3.981 --    25 C    1.446    27 C    1.402    54 H    0.961
                            29 C    0.104
    27   6 C    3.980 --    26 C    1.402    28 C    1.396    32 C    1.030
    28   6 C    3.983 --    29 C    1.453    27 C    1.396    55 H    0.962
                            25 C    0.103
    29   6 C    3.981 --    28 C    1.453    24 C    1.396    56 H    0.961
                            26 C    0.104
    30   8 O    1.857 --    23 S    1.563    31 O    0.105
    31   8 O    1.833 --    23 S    1.535    30 O    0.105
    32   6 C    3.985 --    27 C    1.030    57 H    0.980    58 H    0.973
                            59 H    0.958
    33   1 H    0.922 --     2 N    0.850
    34   1 H    0.989 --     4 C    0.960
    35   1 H    0.989 --     4 C    0.960
    36   1 H    0.980 --     5 C    0.936
    37   1 H    0.946 --     5 C    0.872
    38   1 H    0.996 --     7 C    0.964
    39   1 H    0.994 --     8 C    0.967
    40   1 H    0.994 --     9 C    0.967
    41   1 H    0.994 --    10 C    0.965
    42   1 H    0.996 --    11 C    0.968
    43   1 H    0.995 --    15 C    0.984
    44   1 H    0.994 --    15 C    0.980
    45   1 H    0.994 --    15 C    0.981
    46   1 H    0.984 --    16 C    0.955
    47   1 H    0.993 --    16 C    0.954
    48   1 H    0.977 --    18 C    0.957
    49   1 H    0.985 --    18 C    0.957
    50   1 H    0.976 --    20 C    0.955
    51   1 H    0.984 --    20 C    0.945
    52   1 H    0.985 --    21 C    0.906
    53   1 H    0.995 --    25 C    0.960
    54   1 H    0.991 --    26 C    0.961
    55   1 H    0.992 --    28 C    0.962
    56   1 H    0.994 --    29 C    0.961
    57   1 H    0.995 --    32 C    0.980
    58   1 H    0.995 --    32 C    0.973
    59   1 H    0.991 --    32 C    0.958
 ---------------------------------------------------------------------------

Topologies differ in total number of bonds
Writing topology from bond orders to xtbtopo.mol

molecular dipole:
                 x           y           z       tot (Debye)
 q only:       72.019      54.248      86.350
   full:       72.156      54.141      85.632     316.145
molecular quadrupole (traceless):
                xx          xy          yy          xz          yz          zz
 q only:      -48.805    5890.555   -3298.333    9338.624    7047.725    3347.138
  q+dip:       37.387    5889.584   -3263.359    9276.059    6973.491    3225.972
   full:       34.552    5890.791   -3262.674    9275.408    6974.953    3228.122


           -------------------------------------------------
          | TOTAL ENERGY              -95.286390955625 Eh   |
          | GRADIENT NORM               0.132221475456 Eh/α |
          | HOMO-LUMO GAP               0.379535652266 eV   |
           -------------------------------------------------

------------------------------------------------------------------------
Note: The following floating-point exceptions are signalling: IEEE_UNDERFLOW_FLAG IEEE_DENORMAL
normal termination of xtb
 * finished run on 2026/01/05 at 09:08:00.320     
------------------------------------------------------------------------
 total:
 * wall-time:     0 d,  0 h,  0 min,  0.230 sec
 *  cpu-time:     0 d,  0 h,  0 min,  3.447 sec
 * ratio c/w:    14.978 speedup
 SCF:
 * wall-time:     0 d,  0 h,  0 min,  0.208 sec
 *  cpu-time:     0 d,  0 h,  0 min,  3.129 sec
 * ratio c/w:    15.025 speedup

