      -----------------------------------------------------------      
     |                   =====================                   |     
     |                           x T B                           |     
     |                   =====================                   |     
     |                         S. Grimme                         |     
     |          Mulliken Center for Theoretical Chemistry        |     
     |                    University of Bonn                     |     
      -----------------------------------------------------------      

   * xtb version 6.7.1 (edcfbbe) compiled by 'conda@c0858423619e' on 2025-09-04

   xtb is free software: you can redistribute it and/or modify it under
   the terms of the GNU Lesser General Public License as published by
   the Free Software Foundation, either version 3 of the License, or
   (at your option) any later version.
   
   xtb is distributed in the hope that it will be useful,
   but WITHOUT ANY WARRANTY; without even the implied warranty of
   MERCHANTABILITY or FITNESS FOR A PARTICULAR PURPOSE.  See the
   GNU Lesser General Public License for more details.
   
   Cite this work as:
   * C. Bannwarth, E. Caldeweyher, S. Ehlert, A. Hansen, P. Pracht,
     J. Seibert, S. Spicher, S. Grimme, WIREs Comput. Mol. Sci., 2020, 11,
     e01493. DOI: 10.1002/wcms.1493
   
   for GFN2-xTB:
   * C. Bannwarth, S. Ehlert and S. Grimme., J. Chem. Theory Comput., 2019,
     15, 1652-1671. DOI: 10.1021/acs.jctc.8b01176
   for GFN1-xTB:
   * S. Grimme, C. Bannwarth, P. Shushkov, J. Chem. Theory Comput., 2017,
     13, 1989-2009. DOI: 10.1021/acs.jctc.7b00118
   for GFN0-xTB:
   * P. Pracht, E. Caldeweyher, S. Ehlert, S. Grimme, ChemRxiv, 2019, preprint.
     DOI: 10.26434/chemrxiv.8326202.v1
   for GFN-FF:
   * S. Spicher and S. Grimme, Angew. Chem. Int. Ed., 2020, 59, 15665-15673.
     DOI: 10.1002/anie.202004239
   
   for ALPB and GBSA implicit solvation:
   * S. Ehlert, M. Stahn, S. Spicher, S. Grimme, J. Chem. Theory Comput.,
     2021, 17, 4250-4261. DOI: 10.1021/acs.jctc.1c00471
   
   for ddCOSMO and CPCM-X implicit solvation:
   * M. Stahn, S. Ehlert, S. Grimme, J. Phys. Chem. A,
     2023, XX, XXXX-XXXX. DOI: 10.1021/acs.jpca.3c04382
   
   for DFT-D4:
   * E. Caldeweyher, C. Bannwarth and S. Grimme, J. Chem. Phys., 2017,
     147, 034112. DOI: 10.1063/1.4993215
   * E. Caldeweyher, S. Ehlert, A. Hansen, H. Neugebauer, S. Spicher,
     C. Bannwarth and S. Grimme, J. Chem. Phys., 2019, 150, 154122.
     DOI: 10.1063/1.5090222
   * E. Caldeweyher, J.-M. Mewes, S. Ehlert and S. Grimme, Phys. Chem. Chem. Phys.
     2020, 22, 8499-8512. DOI: 10.1039/D0CP00502A
   
   for sTDA-xTB:
   * S. Grimme and C. Bannwarth, J. Chem. Phys., 2016, 145, 054103.
     DOI: 10.1063/1.4959605
   
   in the mass-spec context:
   * V. Asgeirsson, C. Bauer and S. Grimme, Chem. Sci., 2017, 8, 4879.
     DOI: 10.1039/c7sc00601b
   * J. Koopman and S. Grimme, ACS Omega 2019, 4, 12, 15120-15133.
     DOI: 10.1021/acsomega.9b02011
   
   for metadynamics refer to:
   * S. Grimme, J. Chem. Theory Comput., 2019, 155, 2847-2862
     DOI: 10.1021/acs.jctc.9b00143
   
   for SPH calculations refer to:
   * S. Spicher and S. Grimme, J. Chem. Theory Comput., 2021, 17, 1701-1714
     DOI: 10.1021/acs.jctc.0c01306
   
   for ONIOM refer to:
   * C. Plett, A. Katbashev, S. Ehlert, S. Grimme, M. Bursch,
     Phys. Chem. Chem. Phys., 2023, 25, 17860-17868. DOI: 10.1039/D3CP02178E
   
   for DIPRO refer to:
   * J. Kohn, N. Gildemeister, S. Grimme, D. Fazzi, A. Hansen,
     J. Chem. Phys., 2023, just accepted.
   
   for PTB refer to:
   * S. Grimme, M. Mueller, A. Hansen, J. Chem. Phys., 2023, 158, 124111.
     DOI: 10.1063/5.0137838
   
   with help from (in alphabetical order)
   P. Atkinson, C. Bannwarth, F. Bohle, G. Brandenburg, E. Caldeweyher
   M. Checinski, S. Dohm, S. Ehlert, S. Ehrlich, I. Gerasimov, C. Hölzer
   A. Katbashev, J. Kohn, J. Koopman, C. Lavigne, S. Lehtola, F. März, M. Müller,
   F. Musil, H. Neugebauer, J. Pisarek, C. Plett, P. Pracht, F. Pultar,
   J. Seibert, P. Shushkov, S. Spicher, M. Stahn, M. Steiner, T. Strunk,
   J. Stückrath, T. Rose, and J. Unsleber
   
 * started run on 2026/01/05 at 09:07:40.159     
   ID    Z sym.   atoms
    1    6 C      1, 3-11, 14-16, 18, 20, 21, 24-29, 32, 62, 64, 67, 68, 70,
                  72, 74, 76, 78, 82, 84, 87, 88, 90, 92, 95, 97, 99, 103,
                  105, 108, 110, 114, 116, 120, 122, 124, 128, 131, 135, 139,
                  141, 143, 147, 150, 154
    2    7 N      2, 22, 60, 80, 101, 109, 112, 118, 137
    3    8 O      12, 13, 17, 30, 31, 79, 93, 100, 117, 136, 155
    4   16 S      19, 23
    5    1 H      33-59, 61, 63, 65, 66, 69, 71, 73, 75, 77, 81, 83, 85, 86,
                  89, 91, 94, 96, 98, 102, 104, 106, 107, 111, 113, 115, 119,
                  121, 123, 125-127, 129, 130, 132-134, 138, 140, 142,
                  144-146, 148, 149, 151-153, 156-163

           -------------------------------------------------
          |                Calculation Setup                |
           -------------------------------------------------

          program call               : xtb /home/antonio_mesquita/Documentos/gmx_ISA_project/testes_arquivos_primeiros/gmx_ISA_testes/testes_qm_xtb/QM_analysis/QM_FRAMES_CAPPED/frame_4600ps/complex_capped_4600ps.xyz --gfn 2 --alpb water --chrg 1 --etemp 1500 --cycles 1000
          coordinate file            : /home/antonio_mesquita/Documentos/gmx_ISA_project/testes_arquivos_primeiros/gmx_ISA_testes/testes_qm_xtb/QM_analysis/QM_FRAMES_CAPPED/frame_4600ps/complex_capped_4600ps.xyz
          omp threads                :                    16


molecular fragmentation (1/2 indicates fragments):
111111111111111111111111111111111111111111111111111111111112222222222222
222222222222222222222222222222222222222222222222222222222222222222222222
2222222222222222222
# atoms in fragment 1/2:    59   104
 fragment masses (1/2) :      475.60      681.87
CMA distance (Bohr)    : 104.170
constraining FC (au)   :  0.0500

           -------------------------------------------------
          |                 G F N 2 - x T B                 |
           -------------------------------------------------

        Reference                      10.1021/acs.jctc.8b01176
      * Hamiltonian:
        H0-scaling (s, p, d)           1.850000    2.230000    2.230000
        zeta-weighting                 0.500000
      * Dispersion:
        s8                             2.700000
        a1                             0.520000
        a2                             5.000000
        s9                             5.000000
      * Repulsion:
        kExp                           1.500000    1.000000
        rExp                           1.000000
      * Coulomb:
        alpha                          2.000000
        third order                    shell-resolved
        anisotropic                    true
        a3                             3.000000
        a5                             4.000000
        cn-shift                       1.200000
        cn-exp                         4.000000
        max-rad                        5.000000

      * Solvation model:               ALPB
        Solvent                        water
        Parameter file                 internal GFN2-xTB/ALPB
        Dielectric constant                8.0200E+01
        Reference state                gsolv [1 M gas/solution]
        Free energy shift                  1.0808E-03 Eh       6.7819E-01 kcal/mol
        Temperature                        2.9815E+02 K
        Density                            1.0000E+00 kg/L
        Solvent mass                       1.8000E+01 g/mol
        Interaction kernel             P16
        Born radius scaling (c1)           1.4744E+00
        Born radii integrator          GBOBC
        Born offset                        0.0000E+00 a0       0.0000E+00 AA
        H-bond correction              true
        Ion screening                  false
        Surface tension                    1.0000E-05 Eh       1.5569E+01 dyn/cm
        Grid points                               230 per atom

          ...................................................
          :                      SETUP                      :
          :.................................................:
          :  # basis functions                 418          :
          :  # atomic orbitals                 416          :
          :  # shells                          246          :
          :  # electrons                       440          :
          :  max. iterations                   250          :
          :  Hamiltonian                  GFN2-xTB          :
          :  restarted?                      false          :
          :  GBSA solvation                   true          :
          :  PC potential                    false          :
          :  electronic temp.         1500.0000000     K    :
          :  accuracy                    1.0000000          :
          :  -> integral cutoff          0.2500000E+02      :
          :  -> integral neglect         0.1000000E-07      :
          :  -> SCF convergence          0.1000000E-05 Eh   :
          :  -> wf. convergence          0.1000000E-03 e    :
          :  Broyden damping             0.4000000          :
          :  net charge                          1          :
          :  unpaired electrons                  0          :
          ...................................................

 iter      E             dE          RMSdq      gap      omega  full diag
   1   -247.6687385 -0.247669E+03  0.449E+00    0.07       0.0  T
   2   -247.9761504 -0.307412E+00  0.276E+00    1.73       1.0  T
   3   -247.8328131  0.143337E+00  0.201E+00    0.17       1.0  T
   4   -248.1532678 -0.320455E+00  0.101E+00    0.35       1.0  T
   5   -248.1569302 -0.366242E-02  0.776E-01    0.02       1.0  T
   6   -248.2265678 -0.696376E-01  0.446E-01    0.34       1.0  T
   7   -248.2481774 -0.216096E-01  0.161E-01    0.32       1.0  T
   8   -248.2454825  0.269491E-02  0.169E-01    0.22       1.0  T
   9   -248.2476367 -0.215421E-02  0.123E-01    0.34       1.0  T
  10   -248.2488828 -0.124611E-02  0.899E-02    0.27       1.0  T
  11   -248.2496638 -0.781017E-03  0.567E-02    0.29       1.0  T
  12   -248.2500735 -0.409721E-03  0.226E-02    0.31       1.0  T
  13   -248.2499360  0.137519E-03  0.363E-02    0.28       1.0  T
  14   -248.2501327 -0.196688E-03  0.102E-02    0.30       1.0  T
  15   -248.2501482 -0.154427E-04  0.282E-03    0.30       2.8  T
  16   -248.2501486 -0.471928E-06  0.176E-03    0.30       4.5  T
  17   -248.2501489 -0.296819E-06  0.112E-03    0.30       7.0  T
  18   -248.2501491 -0.171500E-06  0.171E-04    0.30      45.9  T
  19   -248.2501491 -0.147818E-08  0.962E-05    0.30      81.4  T

   *** convergence criteria satisfied after 19 iterations ***

         #    Occupation            Energy/Eh            Energy/eV
      -------------------------------------------------------------
         1        2.0000           -0.7950233             -21.6337
       ...           ...                  ...                  ...
       214        1.9912           -0.3832515             -10.4288
       215        1.9845           -0.3805759             -10.3560
       216        1.9501           -0.3749390             -10.2026
       217        1.8326           -0.3688911             -10.0380
       218        1.8207           -0.3685334             -10.0283
       219        1.7781           -0.3674079              -9.9977
       220        1.7760           -0.3673570              -9.9963 (HOMO)
       221        0.8704           -0.3562844              -9.6950 (LUMO)
       222        0.0000           -0.3010679              -8.1925
       223        0.0000           -0.2963910              -8.0652
       224        0.0000           -0.2870139              -7.8100
       225        0.0000           -0.2846349              -7.7453
       ...           ...                  ...                  ...
       416                          1.0300336              28.0286
      -------------------------------------------------------------
                  HL-Gap            0.0110726 Eh            0.3013 eV
             Fermi-level           -0.3575230 Eh           -9.7287 eV

 SCC (total)                   0 d,  0 h,  0 min,  0.977 sec
 SCC setup                      ...        0 min,  0.008 sec (  0.792%)
 Dispersion                     ...        0 min,  0.012 sec (  1.244%)
 classical contributions        ...        0 min,  0.001 sec (  0.110%)
 integral evaluation            ...        0 min,  0.037 sec (  3.752%)
 iterations                     ...        0 min,  0.810 sec ( 82.910%)
 molecular gradient             ...        0 min,  0.105 sec ( 10.730%)
 printout                       ...        0 min,  0.004 sec (  0.457%)

         :::::::::::::::::::::::::::::::::::::::::::::::::::::
         ::                     SUMMARY                     ::
         :::::::::::::::::::::::::::::::::::::::::::::::::::::
         :: total energy            -245.109753628625 Eh    ::
         :: total w/o Gsasa/hb      -245.083398291659 Eh    ::
         :: gradient norm              0.227011408840 Eh/a0 ::
         :: HOMO-LUMO gap              0.301299969223 eV    ::
         ::.................................................::
         :: SCC energy              -248.244023553573 Eh    ::
         :: -> isotropic ES            0.478109797019 Eh    ::
         :: -> anisotropic ES         -0.006306052330 Eh    ::
         :: -> anisotropic XC          0.116044066451 Eh    ::
         :: -> dispersion             -0.176416886726 Eh    ::
         :: -> Gsolv                  -0.138239772171 Eh    ::
         ::    -> Gelec               -0.111884435206 Eh    ::
         ::    -> Gsasa                0.001926014030 Eh    ::
         ::    -> Ghb                 -0.029362110693 Eh    ::
         ::    -> Gshift               0.001080759698 Eh    ::
         :: repulsion energy           3.134269924949 Eh    ::
         :: add. restraining           0.000000000000 Eh    ::
         :: total charge               1.000000000009 e     ::
         :::::::::::::::::::::::::::::::::::::::::::::::::::::

           -------------------------------------------------
          |                Property Printout                |
           -------------------------------------------------

    * Orbital Energies and Occupations

         #    Occupation            Energy/Eh            Energy/eV
      -------------------------------------------------------------
         1        2.0000           -0.7950233             -21.6337
       ...           ...                  ...                  ...
       208        1.9998           -0.4020085             -10.9392
       209        1.9998           -0.4018362             -10.9345
       210        1.9997           -0.3999888             -10.8842
       211        1.9996           -0.3976427             -10.8204
       212        1.9994           -0.3958449             -10.7715
       213        1.9985           -0.3917876             -10.6611
       214        1.9912           -0.3832515             -10.4288
       215        1.9845           -0.3805759             -10.3560
       216        1.9501           -0.3749390             -10.2026
       217        1.8326           -0.3688911             -10.0380
       218        1.8207           -0.3685334             -10.0283
       219        1.7781           -0.3674079              -9.9977
       220        1.7760           -0.3673570              -9.9963 (HOMO)
       221        0.8704           -0.3562844              -9.6950 (LUMO)
       222        0.0000           -0.3010679              -8.1925
       223        0.0000           -0.2963910              -8.0652
       224        0.0000           -0.2870139              -7.8100
       225        0.0000           -0.2846349              -7.7453
       226                         -0.2643273              -7.1927
       227                         -0.2554599              -6.9514
       228                         -0.2529368              -6.8828
       229                         -0.2333349              -6.3494
       230                         -0.2320996              -6.3158
       231                         -0.2275515              -6.1920
       ...                                ...                  ...
       416                          1.0300336              28.0286
      -------------------------------------------------------------
                  HL-Gap            0.0110726 Eh            0.3013 eV
             Fermi-level           -0.3575230 Eh           -9.7287 eV

     #   Z          covCN         q      C6AA      α(0)
     1   6 C        2.744     0.263    22.561     7.777
     2   7 N        2.688    -0.112    23.444     7.191
     3   6 C        2.879     0.049    26.894     8.502
     4   6 C        3.694     0.074    19.513     6.320
     5   6 C        3.803    -0.069    21.820     6.650
     6   6 C        2.961     0.019    27.582     8.614
     7   6 C        2.936    -0.036    28.893     8.816
     8   6 C        2.918    -0.035    28.879     8.812
     9   6 C        2.908    -0.039    28.972     8.826
    10   6 C        2.915    -0.036    28.893     8.814
    11   6 C        2.936    -0.043    29.075     8.843
    12   8 O        1.703    -0.270    18.476     5.803
    13   8 O        0.857    -0.473    23.191     6.457
    14   6 C        2.715     0.339    21.246     7.545
    15   6 C        3.746    -0.122    22.908     6.827
    16   6 C        3.851     0.006    20.438     6.430
    17   8 O        0.857    -0.460    22.915     6.418
    18   6 C        3.790    -0.036    21.222     6.561
    19  16 S        1.959    -0.148   147.292    20.427
    20   6 C        3.790    -0.045    21.387     6.586
    21   6 C        3.841     0.025    20.124     6.381
    22   7 N        2.727    -0.284    27.317     7.763
    23  16 S        3.822     1.143   102.645    17.052
    24   6 C        2.959    -0.084    30.096     8.998
    25   6 C        2.951    -0.031    28.774     8.798
    26   6 C        2.913    -0.037    28.928     8.819
    27   6 C        2.963     0.036    27.189     8.553
    28   6 C        2.917    -0.038    28.940     8.822
    29   6 C        2.939    -0.030    28.750     8.794
    30   8 O        0.859    -0.668    27.849     7.075
    31   8 O        0.860    -0.645    27.243     6.998
    32   6 C        3.753    -0.146    23.386     6.896
    33   1 H        0.861     0.252     0.875     1.466
    34   1 H        0.924     0.058     2.225     2.333
    35   1 H        0.923     0.077     2.006     2.215
    36   1 H        0.923     0.104     1.746     2.067
    37   1 H        0.924     0.090     1.880     2.144
    38   1 H        0.924     0.034     2.526     2.486
    39   1 H        0.926     0.051     2.308     2.375
    40   1 H        0.925     0.050     2.318     2.381
    41   1 H        0.924     0.049     2.328     2.386
    42   1 H        0.925     0.037     2.489     2.467
    43   1 H        0.924     0.061     2.186     2.312
    44   1 H        0.924     0.065     2.140     2.288
    45   1 H        0.923     0.048     2.348     2.396
    46   1 H        0.923     0.040     2.447     2.446
    47   1 H        0.923     0.069     2.098     2.265
    48   1 H        0.924     0.093     1.853     2.129
    49   1 H        0.925     0.100     1.783     2.088
    50   1 H        0.924     0.095     1.831     2.116
    51   1 H        0.924     0.095     1.828     2.114
    52   1 H        0.924     0.093     1.848     2.126
    53   1 H        0.924     0.070     2.088     2.260
    54   1 H        0.924     0.091     1.868     2.137
    55   1 H        0.925     0.083     1.946     2.181
    56   1 H        0.925     0.057     2.238     2.340
    57   1 H        0.923     0.074     2.041     2.234
    58   1 H        0.924     0.095     1.835     2.119
    59   1 H        0.925     0.079     1.986     2.204
    60   7 N        2.630    -0.324    28.346     7.907
    61   1 H        0.860     0.192     1.148     1.678
    62   6 C        3.785     0.041    19.906     6.355
    63   1 H        0.925     0.093     1.854     2.129
    64   6 C        3.806    -0.075    21.929     6.666
    65   1 H        0.925     0.075     2.032     2.229
    66   1 H        0.924     0.064     2.149     2.292
    67   6 C        2.954     0.011    27.770     8.643
    68   6 C        2.924    -0.045    29.127     8.851
    69   1 H        0.925     0.042     2.421     2.433
    70   6 C        2.909    -0.038    28.957     8.824
    71   1 H        0.926     0.041     2.441     2.443
    72   6 C        2.912    -0.037    28.920     8.818
    73   1 H        0.925     0.037     2.490     2.468
    74   6 C        2.910    -0.037    28.917     8.818
    75   1 H        0.926     0.037     2.491     2.468
    76   6 C        2.921    -0.042    29.038     8.837
    77   1 H        0.926     0.029     2.605     2.524
    78   6 C        2.758     0.211    23.537     7.945
    79   8 O        0.856    -0.376    21.209     6.174
    80   7 N        2.633    -0.322    28.282     7.898
    81   1 H        0.860     0.203     1.090     1.635
    82   6 C        3.784     0.036    19.978     6.367
    83   1 H        0.925     0.103     1.757     2.073
    84   6 C        3.814    -0.073    21.885     6.659
    85   1 H        0.925     0.072     2.065     2.247
    86   1 H        0.925     0.060     2.194     2.316
    87   6 C        2.962     0.008    27.835     8.654
    88   6 C        2.913    -0.042    29.055     8.839
    89   1 H        0.925     0.051     2.307     2.375
    90   6 C        2.910    -0.075    29.873     8.962
    91   1 H        0.925     0.044     2.391     2.418
    92   6 C        2.833     0.141    24.913     8.179
    93   8 O        1.659    -0.459    22.029     6.336
    94   1 H        0.806     0.373     0.537     1.151
    95   6 C        2.914    -0.058    29.449     8.899
    96   1 H        0.925     0.049     2.330     2.387
    97   6 C        2.910    -0.042    29.041     8.837
    98   1 H        0.926     0.052     2.296     2.369
    99   6 C        2.758     0.200    23.746     7.980
   100   8 O        0.856    -0.396    21.611     6.233
   101   7 N        2.635    -0.292    27.537     7.794
   102   1 H        0.860     0.187     1.177     1.699
   103   6 C        3.787     0.041    19.891     6.352
   104   1 H        0.925     0.075     2.027     2.227
   105   6 C        3.814    -0.079    21.991     6.674
   106   1 H        0.924     0.067     2.117     2.275
   107   1 H        0.925     0.080     1.983     2.202
   108   6 C        3.186     0.050    26.423     8.387
   109   7 N        1.894    -0.314    28.992     7.983
   110   6 C        3.062     0.083    26.095     8.377
   111   1 H        0.926     0.049     2.334     2.389
   112   7 N        2.837    -0.102    23.236     7.159
   113   1 H        0.860     0.220     1.008     1.572
   114   6 C        2.964    -0.031    28.775     8.799
   115   1 H        0.925     0.056     2.247     2.344
   116   6 C        2.761     0.212    23.509     7.940
   117   8 O        0.856    -0.341    20.543     6.077
   118   7 N        2.631    -0.317    28.166     7.882
   119   1 H        0.861     0.190     1.158     1.686
   120   6 C        3.789     0.026    20.143     6.392
   121   1 H        0.925     0.071     2.071     2.250
   122   6 C        3.854    -0.025    20.986     6.515
   123   1 H        0.924     0.051     2.304     2.374
   124   6 C        3.757    -0.118    22.822     6.811
   125   1 H        0.925     0.050     2.318     2.381
   126   1 H        0.925     0.047     2.358     2.401
   127   1 H        0.924     0.050     2.320     2.382
   128   6 C        3.805    -0.054    21.536     6.607
   129   1 H        0.925     0.030     2.592     2.518
   130   1 H        0.924     0.016     2.796     2.615
   131   6 C        3.750    -0.113    22.729     6.799
   132   1 H        0.925     0.045     2.380     2.413
   133   1 H        0.925     0.051     2.308     2.376
   134   1 H        0.925     0.037     2.489     2.467
   135   6 C        2.746     0.276    22.327     7.737
   136   8 O        0.861    -0.507    23.935     6.559
   137   7 N        2.689    -0.154    24.325     7.325
   138   1 H        0.860     0.232     0.958     1.533
   139   6 C        3.799     0.028    20.108     6.385
   140   1 H        0.925     0.080     1.981     2.201
   141   6 C        3.854    -0.018    20.861     6.496
   142   1 H        0.925     0.063     2.169     2.303
   143   6 C        3.759    -0.125    22.947     6.829
   144   1 H        0.925     0.041     2.432     2.439
   145   1 H        0.925     0.050     2.322     2.383
   146   1 H        0.925     0.058     2.227     2.334
   147   6 C        3.813    -0.060    21.639     6.621
   148   1 H        0.924     0.025     2.656     2.549
   149   1 H        0.925     0.033     2.548     2.496
   150   6 C        3.748    -0.111    22.698     6.795
   151   1 H        0.923     0.044     2.399     2.422
   152   1 H        0.925     0.039     2.456     2.451
   153   1 H        0.925     0.049     2.331     2.388
   154   6 C        2.761     0.209    23.576     7.952
   155   8 O        0.856    -0.359    20.884     6.127
   156   1 H        0.860     0.208     1.065     1.616
   157   1 H        0.923     0.064     2.156     2.296
   158   1 H        0.860     0.208     1.065     1.617
   159   1 H        0.923     0.063     2.161     2.299
   160   1 H        0.860     0.207     1.069     1.619
   161   1 H        0.923     0.068     2.110     2.272
   162   1 H        0.860     0.214     1.039     1.596
   163   1 H        0.923     0.076     2.025     2.225

 Mol. C6AA /au·bohr⁶  :     280216.181472
 Mol. C8AA /au·bohr⁸  :    6683718.112677
 Mol. α(0) /au        :        815.547379


Wiberg/Mayer (AO) data.
largest (>0.10) Wiberg bond orders for each atom

 ---------------------------------------------------------------------------
     #   Z sym  total        # sym  WBO       # sym  WBO       # sym  WBO
 ---------------------------------------------------------------------------
     1   6 C    3.880 --    17 O    1.678     2 N    1.183    21 C    0.929
     2   7 N    3.492 --     3 C    1.203     1 C    1.183    33 H    0.869
                            17 O    0.130
     3   6 C    3.511 --     2 N    1.203    14 C    1.081     5 C    1.043
     4   6 C    3.909 --    15 C    1.004    34 H    0.968    35 H    0.966
                            12 O    0.941
     5   6 C    3.968 --     3 C    1.043    37 H    0.949     6 C    0.949
                            36 H    0.945
     6   6 C    3.942 --     7 C    1.415    11 C    1.395     5 C    0.949
                             9 C    0.105
     7   6 C    3.983 --     8 C    1.432     6 C    1.415    38 H    0.966
                            10 C    0.110
     8   6 C    3.985 --     9 C    1.442     7 C    1.432    39 H    0.968
                            11 C    0.111
     9   6 C    3.980 --     8 C    1.442    10 C    1.427    40 H    0.969
                             6 C    0.105
    10   6 C    3.987 --    11 C    1.452     9 C    1.427    41 H    0.968
                             7 C    0.110
    11   6 C    3.982 --    10 C    1.452     6 C    1.395    42 H    0.968
                             8 C    0.111
    12   8 O    2.256 --    14 C    1.102     4 C    0.941    13 O    0.154
    13   8 O    1.878 --    14 C    1.621    12 O    0.154
    14   6 C    3.876 --    13 O    1.621    12 O    1.102     3 C    1.081
    15   6 C    3.983 --     4 C    1.004    43 H    0.986    45 H    0.985
                            44 H    0.984
    16   6 C    3.961 --    18 C    1.002    22 N    0.984    46 H    0.968
                            47 H    0.956
    17   8 O    1.921 --     1 C    1.678     2 N    0.130
    18   6 C    3.966 --    16 C    1.002    19 S    0.989    48 H    0.969
                            49 H    0.964
    19  16 S    2.126 --    20 C    0.990    18 C    0.989
    20   6 C    3.967 --    21 C    0.990    19 S    0.990    50 H    0.964
                            51 H    0.963
    21   6 C    3.961 --    20 C    0.990    22 N    0.981    52 H    0.929
                             1 C    0.929
    22   7 N    3.181 --    16 C    0.984    21 C    0.981    23 S    0.891
    23  16 S    4.806 --    31 O    1.563    30 O    1.532    22 N    0.891
                            24 C    0.720
    24   6 C    3.933 --    29 C    1.413    25 C    1.401    23 S    0.720
    25   6 C    3.981 --    26 C    1.448    24 C    1.401    53 H    0.963
                            28 C    0.106
    26   6 C    3.982 --    25 C    1.448    27 C    1.397    54 H    0.961
                            29 C    0.106
    27   6 C    3.980 --    28 C    1.408    26 C    1.397    32 C    1.028
    28   6 C    3.981 --    29 C    1.434    27 C    1.408    55 H    0.961
                            25 C    0.106
    29   6 C    3.982 --    28 C    1.434    24 C    1.413    56 H    0.965
                            26 C    0.106
    30   8 O    1.828 --    23 S    1.532    31 O    0.102
    31   8 O    1.853 --    23 S    1.563    30 O    0.102
    32   6 C    3.982 --    27 C    1.028    59 H    0.981    57 H    0.965
                            58 H    0.959
    33   1 H    0.936 --     2 N    0.869
    34   1 H    0.995 --     4 C    0.968
    35   1 H    0.993 --     4 C    0.966
    36   1 H    0.987 --     5 C    0.945
    37   1 H    0.979 --     5 C    0.949
    38   1 H    0.998 --     7 C    0.966
    39   1 H    0.996 --     8 C    0.968
    40   1 H    0.996 --     9 C    0.969
    41   1 H    0.997 --    10 C    0.968
    42   1 H    0.998 --    11 C    0.968
    43   1 H    0.996 --    15 C    0.986
    44   1 H    0.995 --    15 C    0.984
    45   1 H    0.998 --    15 C    0.985
    46   1 H    0.998 --    16 C    0.968
    47   1 H    0.995 --    16 C    0.956
    48   1 H    0.989 --    18 C    0.969
    49   1 H    0.989 --    18 C    0.964
    50   1 H    0.987 --    20 C    0.964
    51   1 H    0.990 --    20 C    0.963
    52   1 H    0.989 --    21 C    0.929
    53   1 H    0.995 --    25 C    0.963
    54   1 H    0.991 --    26 C    0.961
    55   1 H    0.992 --    28 C    0.961
    56   1 H    0.997 --    29 C    0.965
    57   1 H    0.994 --    32 C    0.965
    58   1 H    0.990 --    32 C    0.959
    59   1 H    0.993 --    32 C    0.981
    60   7 N    3.010 --    62 C    1.028    61 H    0.949   156 H    0.943
    61   1 H    0.963 --    60 N    0.949
    62   6 C    3.967 --    60 N    1.028    78 C    0.964    63 H    0.944
                            64 C    0.941
    63   1 H    0.991 --    62 C    0.944
    64   6 C    3.967 --    67 C    1.010    65 H    0.964    66 H    0.958
                            62 C    0.941
    65   1 H    0.993 --    64 C    0.964
    66   1 H    0.994 --    64 C    0.958
    67   6 C    3.983 --    76 C    1.413    68 C    1.405    64 C    1.010
                            72 C    0.106
    68   6 C    3.981 --    70 C    1.441    67 C    1.405    69 H    0.968
                            74 C    0.113
    69   1 H    0.998 --    68 C    0.968
    70   6 C    3.989 --    68 C    1.441    72 C    1.440    71 H    0.971
                            76 C    0.109
    71   1 H    0.998 --    70 C    0.971
    72   6 C    3.982 --    70 C    1.440    74 C    1.431    73 H    0.971
                            67 C    0.106
    73   1 H    0.998 --    72 C    0.971
    74   6 C    3.988 --    76 C    1.441    72 C    1.431    75 H    0.970
                            68 C    0.113
    75   1 H    0.998 --    74 C    0.970
    76   6 C    3.986 --    74 C    1.441    67 C    1.413    77 H    0.967
                            70 C    0.109
    77   1 H    0.999 --    76 C    0.967
    78   6 C    3.864 --    79 O    1.891    62 C    0.964   157 H    0.935
    79   8 O    2.038 --    78 C    1.891
    80   7 N    2.998 --    82 C    1.050   158 H    0.941    81 H    0.938
    81   1 H    0.959 --    80 N    0.938
    82   6 C    3.969 --    80 N    1.050    99 C    0.975    84 C    0.948
                            83 H    0.895
    83   1 H    0.978 --    82 C    0.895
    84   6 C    3.979 --    87 C    1.010    86 H    0.966    85 H    0.964
                            82 C    0.948
    85   1 H    0.993 --    84 C    0.964
    86   1 H    0.995 --    84 C    0.966
    87   6 C    3.976 --    88 C    1.407    97 C    1.398    84 C    1.010
    88   6 C    3.985 --    90 C    1.450    87 C    1.407    89 H    0.968
                            95 C    0.106
    89   1 H    0.997 --    88 C    0.968
    90   6 C    3.982 --    88 C    1.450    92 C    1.369    91 H    0.967
                            97 C    0.103
    91   1 H    0.998 --    90 C    0.967
    92   6 C    3.926 --    90 C    1.369    95 C    1.358    93 O    1.071
    93   8 O    2.063 --    92 C    1.071    94 H    0.841
    94   1 H    0.861 --    93 O    0.841
    95   6 C    3.980 --    97 C    1.459    92 C    1.358    96 H    0.969
                            88 C    0.106
    96   1 H    0.997 --    95 C    0.969
    97   6 C    3.986 --    95 C    1.459    87 C    1.398    98 H    0.962
                            90 C    0.103
    98   1 H    0.997 --    97 C    0.962
    99   6 C    3.859 --   100 O    1.860    82 C    0.975   159 H    0.933
   100   8 O    2.024 --    99 C    1.860
   101   7 N    2.973 --   103 C    1.018   102 H    0.942   160 H    0.940
   102   1 H    0.964 --   101 N    0.942
   103   6 C    3.962 --   101 N    1.018   116 C    0.979   104 H    0.953
                           105 C    0.929
   104   1 H    0.980 --   103 C    0.953
   105   6 C    3.954 --   108 C    1.008   106 H    0.968   107 H    0.959
                           103 C    0.929
   106   1 H    0.993 --   105 C    0.968
   107   1 H    0.993 --   105 C    0.959
   108   6 C    3.962 --   114 C    1.554   109 N    1.273   105 C    1.008
   109   7 N    2.989 --   110 C    1.518   108 C    1.273   112 N    0.104
   110   6 C    3.952 --   109 N    1.518   112 N    1.301   111 H    0.964
                           114 C    0.114
   111   1 H    0.997 --   110 C    0.964
   112   7 N    3.595 --   110 C    1.301   114 C    1.200   113 H    0.923
                           109 N    0.104
   113   1 H    0.951 --   112 N    0.923
   114   6 C    3.915 --   108 C    1.554   112 N    1.200   115 H    0.966
                           110 C    0.114
   115   1 H    0.997 --   114 C    0.966
   116   6 C    3.884 --   117 O    1.908   103 C    0.979   161 H    0.936
   117   8 O    2.077 --   116 C    1.908
   118   7 N    2.976 --   120 C    1.032   119 H    0.945   162 H    0.940
   119   1 H    0.964 --   118 N    0.945
   120   6 C    3.955 --   118 N    1.032   121 H    0.951   135 C    0.938
                           122 C    0.932
   121   1 H    0.986 --   120 C    0.951
   122   6 C    3.955 --   124 C    1.010   128 C    0.995   123 H    0.962
                           120 C    0.932
   123   1 H    0.995 --   122 C    0.962
   124   6 C    3.991 --   122 C    1.010   126 H    0.981   127 H    0.980
                           125 H    0.980
   125   1 H    0.997 --   124 C    0.980
   126   1 H    0.998 --   124 C    0.981
   127   1 H    0.995 --   124 C    0.980
   128   6 C    3.994 --   131 C    1.013   122 C    0.995   129 H    0.977
                           130 H    0.974
   129   1 H    0.999 --   128 C    0.977
   130   1 H    0.999 --   128 C    0.974
   131   6 C    3.990 --   128 C    1.013   134 H    0.986   132 H    0.986
                           133 H    0.985
   132   1 H    0.998 --   131 C    0.986
   133   1 H    0.997 --   131 C    0.985
   134   1 H    0.998 --   131 C    0.986
   135   6 C    3.936 --   136 O    1.614   137 N    1.313   120 C    0.938
   136   8 O    1.918 --   135 C    1.614   137 N    0.194
   137   7 N    3.485 --   135 C    1.313   139 C    0.964   138 H    0.900
                           136 O    0.194
   138   1 H    0.946 --   137 N    0.900
   139   6 C    3.962 --   154 C    0.974   137 N    0.964   141 C    0.958
                           140 H    0.956
   140   1 H    0.993 --   139 C    0.956
   141   6 C    3.988 --   143 C    1.004   147 C    0.995   142 H    0.964
                           139 C    0.958
   142   1 H    0.996 --   141 C    0.964
   143   6 C    3.990 --   141 C    1.004   145 H    0.986   144 H    0.984
                           146 H    0.978
   144   1 H    0.998 --   143 C    0.984
   145   1 H    0.997 --   143 C    0.986
   146   1 H    0.996 --   143 C    0.978
   147   6 C    3.994 --   150 C    1.014   141 C    0.995   149 H    0.974
                           148 H    0.973
   148   1 H    0.999 --   147 C    0.973
   149   1 H    0.999 --   147 C    0.974
Note: The following floating-point exceptions are signalling: IEEE_UNDERFLOW_FLAG IEEE_DENORMAL
normal termination of xtb
   150   6 C    3.994 --   147 C    1.014   153 H    0.986   152 H    0.984
                           151 H    0.982
   151   1 H    0.998 --   150 C    0.982
   152   1 H    0.998 --   150 C    0.984
   153   1 H    0.998 --   150 C    0.986
   154   6 C    3.883 --   155 O    1.902   139 C    0.974   163 H    0.938
   155   8 O    2.056 --   154 C    1.902
   156   1 H    0.957 --    60 N    0.943
   157   1 H    0.992 --    78 C    0.935
   158   1 H    0.957 --    80 N    0.941
   159   1 H    0.987 --    99 C    0.933
   160   1 H    0.957 --   101 N    0.940
   161   1 H    0.993 --   116 C    0.936
   162   1 H    0.954 --   118 N    0.940
   163   1 H    0.994 --   154 C    0.938
 ---------------------------------------------------------------------------

Topologies differ in total number of bonds
Writing topology from bond orders to xtbtopo.mol

molecular dipole:
                 x           y           z       tot (Debye)
 q only:       39.940      17.702      87.872
   full:       39.019      17.322      87.676     247.863
molecular quadrupole (traceless):
                xx          xy          yy          xz          yz          zz
 q only:    -3299.956    1082.989   -5195.675    5045.979    1985.666    8495.631
  q+dip:    -3360.338    1047.322   -5183.325    4985.660    1954.758    8543.664
   full:    -3359.995    1048.386   -5180.103    4986.569    1957.258    8540.098


           -------------------------------------------------
          | TOTAL ENERGY             -245.109753628625 Eh   |
          | GRADIENT NORM               0.227011408840 Eh/α |
          | HOMO-LUMO GAP               0.301299969223 eV   |
           -------------------------------------------------

------------------------------------------------------------------------
 * finished run on 2026/01/05 at 09:07:41.200     
------------------------------------------------------------------------
 total:
 * wall-time:     0 d,  0 h,  0 min,  1.041 sec
 *  cpu-time:     0 d,  0 h,  0 min, 15.332 sec
 * ratio c/w:    14.725 speedup
 SCF:
 * wall-time:     0 d,  0 h,  0 min,  0.979 sec
 *  cpu-time:     0 d,  0 h,  0 min, 14.447 sec
 * ratio c/w:    14.759 speedup

