      -----------------------------------------------------------      
     |                   =====================                   |     
     |                           x T B                           |     
     |                   =====================                   |     
     |                         S. Grimme                         |     
     |          Mulliken Center for Theoretical Chemistry        |     
     |                    University of Bonn                     |     
      -----------------------------------------------------------      

   * xtb version 6.7.1 (edcfbbe) compiled by 'conda@c0858423619e' on 2025-09-04

   xtb is free software: you can redistribute it and/or modify it under
   the terms of the GNU Lesser General Public License as published by
   the Free Software Foundation, either version 3 of the License, or
   (at your option) any later version.
   
   xtb is distributed in the hope that it will be useful,
   but WITHOUT ANY WARRANTY; without even the implied warranty of
   MERCHANTABILITY or FITNESS FOR A PARTICULAR PURPOSE.  See the
   GNU Lesser General Public License for more details.
   
   Cite this work as:
   * C. Bannwarth, E. Caldeweyher, S. Ehlert, A. Hansen, P. Pracht,
     J. Seibert, S. Spicher, S. Grimme, WIREs Comput. Mol. Sci., 2020, 11,
     e01493. DOI: 10.1002/wcms.1493
   
   for GFN2-xTB:
   * C. Bannwarth, S. Ehlert and S. Grimme., J. Chem. Theory Comput., 2019,
     15, 1652-1671. DOI: 10.1021/acs.jctc.8b01176
   for GFN1-xTB:
   * S. Grimme, C. Bannwarth, P. Shushkov, J. Chem. Theory Comput., 2017,
     13, 1989-2009. DOI: 10.1021/acs.jctc.7b00118
   for GFN0-xTB:
   * P. Pracht, E. Caldeweyher, S. Ehlert, S. Grimme, ChemRxiv, 2019, preprint.
     DOI: 10.26434/chemrxiv.8326202.v1
   for GFN-FF:
   * S. Spicher and S. Grimme, Angew. Chem. Int. Ed., 2020, 59, 15665-15673.
     DOI: 10.1002/anie.202004239
   
   for ALPB and GBSA implicit solvation:
   * S. Ehlert, M. Stahn, S. Spicher, S. Grimme, J. Chem. Theory Comput.,
     2021, 17, 4250-4261. DOI: 10.1021/acs.jctc.1c00471
   
   for ddCOSMO and CPCM-X implicit solvation:
   * M. Stahn, S. Ehlert, S. Grimme, J. Phys. Chem. A,
     2023, XX, XXXX-XXXX. DOI: 10.1021/acs.jpca.3c04382
   
   for DFT-D4:
   * E. Caldeweyher, C. Bannwarth and S. Grimme, J. Chem. Phys., 2017,
     147, 034112. DOI: 10.1063/1.4993215
   * E. Caldeweyher, S. Ehlert, A. Hansen, H. Neugebauer, S. Spicher,
     C. Bannwarth and S. Grimme, J. Chem. Phys., 2019, 150, 154122.
     DOI: 10.1063/1.5090222
   * E. Caldeweyher, J.-M. Mewes, S. Ehlert and S. Grimme, Phys. Chem. Chem. Phys.
     2020, 22, 8499-8512. DOI: 10.1039/D0CP00502A
   
   for sTDA-xTB:
   * S. Grimme and C. Bannwarth, J. Chem. Phys., 2016, 145, 054103.
     DOI: 10.1063/1.4959605
   
   in the mass-spec context:
   * V. Asgeirsson, C. Bauer and S. Grimme, Chem. Sci., 2017, 8, 4879.
     DOI: 10.1039/c7sc00601b
   * J. Koopman and S. Grimme, ACS Omega 2019, 4, 12, 15120-15133.
     DOI: 10.1021/acsomega.9b02011
   
   for metadynamics refer to:
   * S. Grimme, J. Chem. Theory Comput., 2019, 155, 2847-2862
     DOI: 10.1021/acs.jctc.9b00143
   
   for SPH calculations refer to:
   * S. Spicher and S. Grimme, J. Chem. Theory Comput., 2021, 17, 1701-1714
     DOI: 10.1021/acs.jctc.0c01306
   
   for ONIOM refer to:
   * C. Plett, A. Katbashev, S. Ehlert, S. Grimme, M. Bursch,
     Phys. Chem. Chem. Phys., 2023, 25, 17860-17868. DOI: 10.1039/D3CP02178E
   
   for DIPRO refer to:
   * J. Kohn, N. Gildemeister, S. Grimme, D. Fazzi, A. Hansen,
     J. Chem. Phys., 2023, just accepted.
   
   for PTB refer to:
   * S. Grimme, M. Mueller, A. Hansen, J. Chem. Phys., 2023, 158, 124111.
     DOI: 10.1063/5.0137838
   
   with help from (in alphabetical order)
   P. Atkinson, C. Bannwarth, F. Bohle, G. Brandenburg, E. Caldeweyher
   M. Checinski, S. Dohm, S. Ehlert, S. Ehrlich, I. Gerasimov, C. Hölzer
   A. Katbashev, J. Kohn, J. Koopman, C. Lavigne, S. Lehtola, F. März, M. Müller,
   F. Musil, H. Neugebauer, J. Pisarek, C. Plett, P. Pracht, F. Pultar,
   J. Seibert, P. Shushkov, S. Spicher, M. Stahn, M. Steiner, T. Strunk,
   J. Stückrath, T. Rose, and J. Unsleber
   
 * started run on 2026/01/05 at 09:06:18.992     
   ID    Z sym.   atoms
    1    6 C      1, 3-11, 14-16, 18, 20, 21, 24-29, 32
    2    7 N      2, 22
    3    8 O      12, 13, 17, 30, 31
    4   16 S      19, 23
    5    1 H      33-59

           -------------------------------------------------
          |                Calculation Setup                |
           -------------------------------------------------

          program call               : xtb /home/antonio_mesquita/Documentos/gmx_ISA_project/testes_arquivos_primeiros/gmx_ISA_testes/testes_qm_xtb/QM_analysis/QM_FRAMES_CAPPED/frame_1000ps/ligand_isolated_1000ps.xyz --gfn 2 --alpb water --chrg 1 --etemp 1500 --cycles 1000
          coordinate file            : /home/antonio_mesquita/Documentos/gmx_ISA_project/testes_arquivos_primeiros/gmx_ISA_testes/testes_qm_xtb/QM_analysis/QM_FRAMES_CAPPED/frame_1000ps/ligand_isolated_1000ps.xyz
          omp threads                :                    16


           -------------------------------------------------
          |                 G F N 2 - x T B                 |
           -------------------------------------------------

        Reference                      10.1021/acs.jctc.8b01176
      * Hamiltonian:
        H0-scaling (s, p, d)           1.850000    2.230000    2.230000
        zeta-weighting                 0.500000
      * Dispersion:
        s8                             2.700000
        a1                             0.520000
        a2                             5.000000
        s9                             5.000000
      * Repulsion:
        kExp                           1.500000    1.000000
        rExp                           1.000000
      * Coulomb:
        alpha                          2.000000
        third order                    shell-resolved
        anisotropic                    true
        a3                             3.000000
        a5                             4.000000
        cn-shift                       1.200000
        cn-exp                         4.000000
        max-rad                        5.000000

      * Solvation model:               ALPB
        Solvent                        water
        Parameter file                 internal GFN2-xTB/ALPB
        Dielectric constant                8.0200E+01
        Reference state                gsolv [1 M gas/solution]
        Free energy shift                  1.0808E-03 Eh       6.7819E-01 kcal/mol
        Temperature                        2.9815E+02 K
        Density                            1.0000E+00 kg/L
        Solvent mass                       1.8000E+01 g/mol
        Interaction kernel             P16
        Born radius scaling (c1)           1.4744E+00
        Born radii integrator          GBOBC
        Born offset                        0.0000E+00 a0       0.0000E+00 AA
        H-bond correction              true
        Ion screening                  false
        Surface tension                    1.0000E-05 Eh       1.5569E+01 dyn/cm
        Grid points                               230 per atom

          ...................................................
          :                      SETUP                      :
          :.................................................:
          :  # basis functions                 167          :
          :  # atomic orbitals                 165          :
          :  # shells                           93          :
          :  # electrons                       170          :
          :  max. iterations                   250          :
          :  Hamiltonian                  GFN2-xTB          :
          :  restarted?                      false          :
          :  GBSA solvation                   true          :
          :  PC potential                    false          :
          :  electronic temp.         1500.0000000     K    :
          :  accuracy                    1.0000000          :
          :  -> integral cutoff          0.2500000E+02      :
          :  -> integral neglect         0.1000000E-07      :
          :  -> SCF convergence          0.1000000E-05 Eh   :
          :  -> wf. convergence          0.1000000E-03 e    :
          :  Broyden damping             0.4000000          :
          :  net charge                          1          :
          :  unpaired electrons                  0          :
          ...................................................

 iter      E             dE          RMSdq      gap      omega  full diag
   1    -96.2204658 -0.962205E+02  0.497E+00    0.80       0.0  T
   2    -96.1956961  0.247696E-01  0.376E+00    0.42       1.0  T
   3    -96.2809940 -0.852979E-01  0.284E+00    1.60       1.0  T
   4    -96.3928356 -0.111842E+00  0.149E+00    0.69       1.0  T
   5    -96.3684305  0.244051E-01  0.127E+00    1.00       1.0  T
   6    -96.4139057 -0.454752E-01  0.415E-01    0.43       1.0  T
   7    -96.4157861 -0.188040E-02  0.137E-01    0.32       1.0  T
   8    -96.4160027 -0.216569E-03  0.817E-02    0.36       1.0  T
   9    -96.4160657 -0.630624E-04  0.310E-02    0.34       1.0  T
  10    -96.4160676 -0.185544E-05  0.254E-02    0.35       1.0  T
  11    -96.4160751 -0.752470E-05  0.183E-02    0.34       1.0  T
  12    -96.4160804 -0.523291E-05  0.122E-02    0.35       1.1  T
  13    -96.4160834 -0.303318E-05  0.170E-03    0.35       7.7  T
  14    -96.4160834 -0.270345E-07  0.102E-03    0.35      12.8  T
  15    -96.4160834 -0.864422E-08  0.867E-04    0.35      15.0  T
  16    -96.4160834 -0.168694E-07  0.215E-04    0.35      60.7  T

   *** convergence criteria satisfied after 16 iterations ***

         #    Occupation            Energy/Eh            Energy/eV
      -------------------------------------------------------------
         1        2.0000           -0.8042474             -21.8847
       ...           ...                  ...                  ...
        79        1.9996           -0.4330510             -11.7839
        80        1.9984           -0.4264819             -11.6052
        81        1.9973           -0.4239668             -11.5367
        82        1.9920           -0.4188296             -11.3969
        83        1.9821           -0.4149562             -11.2915
        84        1.9813           -0.4147551             -11.2861
        85        1.6098           -0.3993267             -10.8662 (HOMO)
        86        0.4402           -0.3865860             -10.5195 (LUMO)
        87                         -0.2787811              -7.5860
        88                         -0.2636131              -7.1733
        89                         -0.2525586              -6.8725
        90                         -0.2471656              -6.7257
       ...                                ...                  ...
       165                          1.0195992              27.7447
      -------------------------------------------------------------
                  HL-Gap            0.0127407 Eh            0.3467 eV
             Fermi-level           -0.3925954 Eh          -10.6831 eV

 SCC (total)                   0 d,  0 h,  0 min,  0.227 sec
 SCC setup                      ...        0 min,  0.006 sec (  2.519%)
 Dispersion                     ...        0 min,  0.004 sec (  1.576%)
 classical contributions        ...        0 min,  0.001 sec (  0.421%)
 integral evaluation            ...        0 min,  0.010 sec (  4.257%)
 iterations                     ...        0 min,  0.177 sec ( 77.844%)
 molecular gradient             ...        0 min,  0.029 sec ( 12.718%)
 printout                       ...        0 min,  0.001 sec (  0.654%)

         :::::::::::::::::::::::::::::::::::::::::::::::::::::
         ::                     SUMMARY                     ::
         :::::::::::::::::::::::::::::::::::::::::::::::::::::
         :: total energy             -95.275501766411 Eh    ::
         :: total w/o Gsasa/hb       -95.271921797897 Eh    ::
         :: gradient norm              0.146510275460 Eh/a0 ::
         :: HOMO-LUMO gap              0.346692169551 eV    ::
         ::.................................................::
         :: SCC energy               -96.415250017966 Eh    ::
         :: -> isotropic ES            0.236020293948 Eh    ::
         :: -> anisotropic ES         -0.022882169122 Eh    ::
         :: -> anisotropic XC          0.039853154277 Eh    ::
         :: -> dispersion             -0.068909540696 Eh    ::
         :: -> Gsolv                  -0.089082727003 Eh    ::
         ::    -> Gelec               -0.085502758488 Eh    ::
         ::    -> Gsasa                0.003588939376 Eh    ::
         ::    -> Ghb                 -0.008249667589 Eh    ::
         ::    -> Gshift               0.001080759698 Eh    ::
         :: repulsion energy           1.139748251554 Eh    ::
         :: add. restraining           0.000000000000 Eh    ::
         :: total charge               1.000000001036 e     ::
         :::::::::::::::::::::::::::::::::::::::::::::::::::::

           -------------------------------------------------
          |                Property Printout                |
           -------------------------------------------------

    * Orbital Energies and Occupations

         #    Occupation            Energy/Eh            Energy/eV
      -------------------------------------------------------------
         1        2.0000           -0.8042474             -21.8847
       ...           ...                  ...                  ...
        73        2.0000           -0.4569653             -12.4347
        74        2.0000           -0.4489742             -12.2172
        75        1.9999           -0.4395371             -11.9604
        76        1.9999           -0.4387934             -11.9402
        77        1.9998           -0.4361680             -11.8687
        78        1.9997           -0.4346895             -11.8285
        79        1.9996           -0.4330510             -11.7839
        80        1.9984           -0.4264819             -11.6052
        81        1.9973           -0.4239668             -11.5367
        82        1.9920           -0.4188296             -11.3969
        83        1.9821           -0.4149562             -11.2915
        84        1.9813           -0.4147551             -11.2861
        85        1.6098           -0.3993267             -10.8662 (HOMO)
        86        0.4402           -0.3865860             -10.5195 (LUMO)
        87                         -0.2787811              -7.5860
        88                         -0.2636131              -7.1733
        89                         -0.2525586              -6.8725
        90                         -0.2471656              -6.7257
        91                         -0.2453751              -6.6770
        92                         -0.2407748              -6.5518
        93                         -0.2326038              -6.3295
        94                         -0.1874390              -5.1005
        95                         -0.1803667              -4.9080
        96                         -0.1552554              -4.2247
       ...                                ...                  ...
       165                          1.0195992              27.7447
      -------------------------------------------------------------
                  HL-Gap            0.0127407 Eh            0.3467 eV
             Fermi-level           -0.3925954 Eh          -10.6831 eV

     #   Z          covCN         q      C6AA      α(0)
     1   6 C        2.746     0.286    22.155     7.707
     2   7 N        2.687    -0.074    22.682     7.073
     3   6 C        2.871     0.096    25.857     8.336
     4   6 C        3.679     0.063    19.724     6.362
     5   6 C        3.808    -0.084    22.090     6.690
     6   6 C        2.965     0.028    27.375     8.582
     7   6 C        2.918    -0.036    28.887     8.814
     8   6 C        2.906    -0.031    28.761     8.794
     9   6 C        2.917    -0.030    28.738     8.791
    10   6 C        2.906    -0.028    28.696     8.784
    11   6 C        2.915    -0.039    28.978     8.827
    12   8 O        1.702    -0.250    18.135     5.750
    13   8 O        0.857    -0.429    22.264     6.326
    14   6 C        2.700     0.349    21.071     7.513
    15   6 C        3.745    -0.138    23.235     6.876
    16   6 C        3.808    -0.016    20.851     6.500
    17   8 O        0.857    -0.385    21.387     6.200
    18   6 C        3.788    -0.053    21.541     6.610
    19  16 S        1.960     0.025   140.037    19.917
    20   6 C        3.790    -0.070    21.850     6.657
    21   6 C        3.871     0.019    20.205     6.392
    22   7 N        2.727    -0.249    26.482     7.643
    23  16 S        3.795     1.159   102.204    17.015
    24   6 C        2.956    -0.093    30.336     9.034
    25   6 C        2.946    -0.029    28.732     8.791
    26   6 C        2.909    -0.036    28.888     8.813
    27   6 C        2.962     0.043    27.023     8.527
    28   6 C        2.916    -0.039    28.981     8.828
    29   6 C        2.942    -0.031    28.781     8.799
    30   8 O        0.860    -0.641    27.153     6.986
    31   8 O        0.859    -0.640    27.126     6.983
    32   6 C        3.753    -0.138    23.212     6.870
    33   1 H        0.860     0.278     0.784     1.387
    34   1 H        0.924     0.079     1.994     2.208
    35   1 H        0.924     0.076     2.021     2.223
    36   1 H        0.924     0.133     1.515     1.925
    37   1 H        0.923     0.160     1.326     1.801
    38   1 H        0.924     0.064     2.147     2.292
    39   1 H        0.924     0.058     2.228     2.334
    40   1 H        0.924     0.050     2.318     2.381
    41   1 H        0.924     0.054     2.272     2.357
    42   1 H        0.925     0.063     2.161     2.299
    43   1 H        0.924     0.081     1.972     2.196
    44   1 H        0.924     0.062     2.173     2.305
    45   1 H        0.924     0.072     2.060     2.245
    46   1 H        0.923     0.107     1.719     2.050
    47   1 H        0.923     0.099     1.790     2.093
    48   1 H        0.924     0.091     1.865     2.136
    49   1 H        0.923     0.111     1.692     2.034
    50   1 H        0.925     0.100     1.789     2.092
    51   1 H        0.924     0.120     1.614     1.986
    52   1 H        0.922     0.115     1.654     2.011
    53   1 H        0.925     0.061     2.183     2.311
    54   1 H        0.925     0.083     1.952     2.185
    55   1 H        0.926     0.087     1.905     2.158
    56   1 H        0.924     0.073     2.056     2.242
    57   1 H        0.924     0.076     2.022     2.224
    58   1 H        0.924     0.063     2.163     2.300
    59   1 H        0.923     0.073     2.058     2.244

 Mol. C6AA /au·bohr⁶  :      43352.031964
 Mol. C8AA /au·bohr⁸  :    1117160.369426
 Mol. α(0) /au        :        323.807755


Wiberg/Mayer (AO) data.
largest (>0.10) Wiberg bond orders for each atom

 ---------------------------------------------------------------------------
     #   Z sym  total        # sym  WBO       # sym  WBO       # sym  WBO
 ---------------------------------------------------------------------------
     1   6 C    3.912 --    17 O    1.734     2 N    1.164    21 C    0.935
     2   7 N    3.539 --     3 C    1.262     1 C    1.164    33 H    0.853
                            17 O    0.124
     3   6 C    3.626 --     2 N    1.262     5 C    1.080    14 C    1.032
     4   6 C    3.900 --    15 C    1.008    34 H    0.963    35 H    0.960
                            12 O    0.929
     5   6 C    3.946 --     3 C    1.080     6 C    0.947    36 H    0.945
                            37 H    0.877
     6   6 C    3.944 --    11 C    1.408     7 C    1.391     5 C    0.947
                             9 C    0.102
     7   6 C    3.971 --     8 C    1.439     6 C    1.391    38 H    0.965
                            10 C    0.105
     8   6 C    3.976 --     7 C    1.439     9 C    1.432    39 H    0.966
                            11 C    0.108
     9   6 C    3.969 --     8 C    1.432    10 C    1.425    40 H    0.968
                             6 C    0.102
    10   6 C    3.975 --    11 C    1.441     9 C    1.425    41 H    0.966
                             7 C    0.105
    11   6 C    3.979 --    10 C    1.441     6 C    1.408    42 H    0.965
                             8 C    0.108
    12   8 O    2.298 --    14 C    1.131     4 C    0.929    13 O    0.182
    13   8 O    1.953 --    14 C    1.668    12 O    0.182
    14   6 C    3.903 --    13 O    1.668    12 O    1.131     3 C    1.032
    15   6 C    3.982 --     4 C    1.008    44 H    0.988    43 H    0.982
                            45 H    0.981
    16   6 C    3.941 --    18 C    0.998    22 N    0.987    47 H    0.953
                            46 H    0.952
    17   8 O    2.009 --     1 C    1.734     2 N    0.124
    18   6 C    3.944 --    16 C    0.998    19 S    0.990    49 H    0.962
                            48 H    0.955
    19  16 S    2.113 --    20 C    0.997    18 C    0.990
    20   6 C    3.952 --    19 S    0.997    21 C    0.984    50 H    0.953
                            51 H    0.951
    21   6 C    3.953 --    22 N    0.988    20 C    0.984     1 C    0.935
                            52 H    0.913
    22   7 N    3.182 --    21 C    0.988    16 C    0.987    23 S    0.877
    23  16 S    4.812 --    30 O    1.562    31 O    1.533    22 N    0.877
                            24 C    0.743
    24   6 C    3.934 --    25 C    1.405    29 C    1.402    23 S    0.743
    25   6 C    3.982 --    26 C    1.445    24 C    1.405    53 H    0.963
                            28 C    0.104
    26   6 C    3.978 --    25 C    1.445    27 C    1.398    54 H    0.962
                            29 C    0.105
    27   6 C    3.974 --    26 C    1.398    28 C    1.392    32 C    1.034
    28   6 C    3.970 --    29 C    1.446    27 C    1.392    55 H    0.961
                            25 C    0.104
    29   6 C    3.978 --    28 C    1.446    24 C    1.402    56 H    0.964
                            26 C    0.105
    30   8 O    1.857 --    23 S    1.562    31 O    0.107
    31   8 O    1.844 --    23 S    1.533    30 O    0.107
    32   6 C    3.978 --    27 C    1.034    58 H    0.976    59 H    0.973
                            57 H    0.952
    33   1 H    0.917 --     2 N    0.853
    34   1 H    0.991 --     4 C    0.963
    35   1 H    0.990 --     4 C    0.960
    36   1 H    0.980 --     5 C    0.945
    37   1 H    0.948 --     5 C    0.877
    38   1 H    0.995 --     7 C    0.965
    39   1 H    0.993 --     8 C    0.966
    40   1 H    0.994 --     9 C    0.968
    41   1 H    0.995 --    10 C    0.966
    42   1 H    0.995 --    11 C    0.965
    43   1 H    0.993 --    15 C    0.982
    44   1 H    0.995 --    15 C    0.988
    45   1 H    0.994 --    15 C    0.981
    46   1 H    0.984 --    16 C    0.952
    47   1 H    0.989 --    16 C    0.953
    48   1 H    0.975 --    18 C    0.955
    49   1 H    0.987 --    18 C    0.962
    50   1 H    0.974 --    20 C    0.953
    51   1 H    0.985 --    20 C    0.951
    52   1 H    0.984 --    21 C    0.913
    53   1 H    0.996 --    25 C    0.963
    54   1 H    0.992 --    26 C    0.962
    55   1 H    0.991 --    28 C    0.961
    56   1 H    0.994 --    29 C    0.964
    57   1 H    0.991 --    32 C    0.952
    58   1 H    0.995 --    32 C    0.976
    59   1 H    0.994 --    32 C    0.973
 ---------------------------------------------------------------------------

Topologies differ in total number of bonds
Writing topology from bond orders to xtbtopo.mol

molecular dipole:
                 x           y           z       tot (Debye)
 q only:       72.379      49.693      82.271
   full:       72.217      49.867      81.673     304.719
molecular quadrupole (traceless):
                xx          xy          yy          xz          yz          zz
 q only:      584.010    5402.022   -3478.735    8938.511    6187.645    2894.724
  q+dip:      596.353    5409.914   -3401.829    8855.622    6159.697    2805.475
   full:      596.110    5411.083   -3402.729    8855.142    6158.708    2806.619


           -------------------------------------------------
          | TOTAL ENERGY              -95.275501766411 Eh   |
          | GRADIENT NORM               0.146510275460 Eh/α |
          | HOMO-LUMO GAP               0.346692169551 eV   |
Note: The following floating-point exceptions are signalling: IEEE_UNDERFLOW_FLAG IEEE_DENORMAL
normal termination of xtb
           -------------------------------------------------

------------------------------------------------------------------------
 * finished run on 2026/01/05 at 09:06:19.242     
------------------------------------------------------------------------
 total:
 * wall-time:     0 d,  0 h,  0 min,  0.251 sec
 *  cpu-time:     0 d,  0 h,  0 min,  3.760 sec
 * ratio c/w:    14.996 speedup
 SCF:
 * wall-time:     0 d,  0 h,  0 min,  0.228 sec
 *  cpu-time:     0 d,  0 h,  0 min,  3.408 sec
 * ratio c/w:    14.972 speedup

