      -----------------------------------------------------------      
     |                   =====================                   |     
     |                           x T B                           |     
     |                   =====================                   |     
     |                         S. Grimme                         |     
     |          Mulliken Center for Theoretical Chemistry        |     
     |                    University of Bonn                     |     
      -----------------------------------------------------------      

   * xtb version 6.7.1 (edcfbbe) compiled by 'conda@c0858423619e' on 2025-09-04

   xtb is free software: you can redistribute it and/or modify it under
   the terms of the GNU Lesser General Public License as published by
   the Free Software Foundation, either version 3 of the License, or
   (at your option) any later version.
   
   xtb is distributed in the hope that it will be useful,
   but WITHOUT ANY WARRANTY; without even the implied warranty of
   MERCHANTABILITY or FITNESS FOR A PARTICULAR PURPOSE.  See the
   GNU Lesser General Public License for more details.
   
   Cite this work as:
   * C. Bannwarth, E. Caldeweyher, S. Ehlert, A. Hansen, P. Pracht,
     J. Seibert, S. Spicher, S. Grimme, WIREs Comput. Mol. Sci., 2020, 11,
     e01493. DOI: 10.1002/wcms.1493
   
   for GFN2-xTB:
   * C. Bannwarth, S. Ehlert and S. Grimme., J. Chem. Theory Comput., 2019,
     15, 1652-1671. DOI: 10.1021/acs.jctc.8b01176
   for GFN1-xTB:
   * S. Grimme, C. Bannwarth, P. Shushkov, J. Chem. Theory Comput., 2017,
     13, 1989-2009. DOI: 10.1021/acs.jctc.7b00118
   for GFN0-xTB:
   * P. Pracht, E. Caldeweyher, S. Ehlert, S. Grimme, ChemRxiv, 2019, preprint.
     DOI: 10.26434/chemrxiv.8326202.v1
   for GFN-FF:
   * S. Spicher and S. Grimme, Angew. Chem. Int. Ed., 2020, 59, 15665-15673.
     DOI: 10.1002/anie.202004239
   
   for ALPB and GBSA implicit solvation:
   * S. Ehlert, M. Stahn, S. Spicher, S. Grimme, J. Chem. Theory Comput.,
     2021, 17, 4250-4261. DOI: 10.1021/acs.jctc.1c00471
   
   for ddCOSMO and CPCM-X implicit solvation:
   * M. Stahn, S. Ehlert, S. Grimme, J. Phys. Chem. A,
     2023, XX, XXXX-XXXX. DOI: 10.1021/acs.jpca.3c04382
   
   for DFT-D4:
   * E. Caldeweyher, C. Bannwarth and S. Grimme, J. Chem. Phys., 2017,
     147, 034112. DOI: 10.1063/1.4993215
   * E. Caldeweyher, S. Ehlert, A. Hansen, H. Neugebauer, S. Spicher,
     C. Bannwarth and S. Grimme, J. Chem. Phys., 2019, 150, 154122.
     DOI: 10.1063/1.5090222
   * E. Caldeweyher, J.-M. Mewes, S. Ehlert and S. Grimme, Phys. Chem. Chem. Phys.
     2020, 22, 8499-8512. DOI: 10.1039/D0CP00502A
   
   for sTDA-xTB:
   * S. Grimme and C. Bannwarth, J. Chem. Phys., 2016, 145, 054103.
     DOI: 10.1063/1.4959605
   
   in the mass-spec context:
   * V. Asgeirsson, C. Bauer and S. Grimme, Chem. Sci., 2017, 8, 4879.
     DOI: 10.1039/c7sc00601b
   * J. Koopman and S. Grimme, ACS Omega 2019, 4, 12, 15120-15133.
     DOI: 10.1021/acsomega.9b02011
   
   for metadynamics refer to:
   * S. Grimme, J. Chem. Theory Comput., 2019, 155, 2847-2862
     DOI: 10.1021/acs.jctc.9b00143
   
   for SPH calculations refer to:
   * S. Spicher and S. Grimme, J. Chem. Theory Comput., 2021, 17, 1701-1714
     DOI: 10.1021/acs.jctc.0c01306
   
   for ONIOM refer to:
   * C. Plett, A. Katbashev, S. Ehlert, S. Grimme, M. Bursch,
     Phys. Chem. Chem. Phys., 2023, 25, 17860-17868. DOI: 10.1039/D3CP02178E
   
   for DIPRO refer to:
   * J. Kohn, N. Gildemeister, S. Grimme, D. Fazzi, A. Hansen,
     J. Chem. Phys., 2023, just accepted.
   
   for PTB refer to:
   * S. Grimme, M. Mueller, A. Hansen, J. Chem. Phys., 2023, 158, 124111.
     DOI: 10.1063/5.0137838
   
   with help from (in alphabetical order)
   P. Atkinson, C. Bannwarth, F. Bohle, G. Brandenburg, E. Caldeweyher
   M. Checinski, S. Dohm, S. Ehlert, S. Ehrlich, I. Gerasimov, C. Hölzer
   A. Katbashev, J. Kohn, J. Koopman, C. Lavigne, S. Lehtola, F. März, M. Müller,
   F. Musil, H. Neugebauer, J. Pisarek, C. Plett, P. Pracht, F. Pultar,
   J. Seibert, P. Shushkov, S. Spicher, M. Stahn, M. Steiner, T. Strunk,
   J. Stückrath, T. Rose, and J. Unsleber
   
 * started run on 2026/01/05 at 09:07:26.446     
   ID    Z sym.   atoms
    1    6 C      1, 3-11, 14-16, 18, 20, 21, 24-29, 32, 62, 64, 67, 68, 70,
                  72, 74, 76, 78, 82, 84, 87, 88, 90, 92, 94, 96, 98, 102,
                  104, 107, 108, 110, 112, 115, 117, 119, 123, 125, 128, 130,
                  134, 136, 140, 142, 144, 148, 151, 155, 159, 161, 163, 167,
                  170, 174
    2    7 N      2, 22, 60, 80, 100, 121, 129, 132, 138, 157
    3    8 O      12, 13, 17, 30, 31, 79, 99, 113, 120, 137, 156, 175
    4   16 S      19, 23
    5    1 H      33-59, 61, 63, 65, 66, 69, 71, 73, 75, 77, 81, 83, 85, 86,
                  89, 91, 93, 95, 97, 101, 103, 105, 106, 109, 111, 114, 116,
                  118, 122, 124, 126, 127, 131, 133, 135, 139, 141, 143,
                  145-147, 149, 150, 152-154, 158, 160, 162, 164-166, 168,
                  169, 171-173, 176-185

           -------------------------------------------------
          |                Calculation Setup                |
           -------------------------------------------------

          program call               : xtb /home/antonio_mesquita/Documentos/gmx_ISA_project/testes_arquivos_primeiros/gmx_ISA_testes/testes_qm_xtb/QM_analysis/QM_FRAMES_CAPPED/frame_4000ps/complex_capped_4000ps.xyz --gfn 2 --alpb water --chrg 1 --etemp 1500 --cycles 1000
          coordinate file            : /home/antonio_mesquita/Documentos/gmx_ISA_project/testes_arquivos_primeiros/gmx_ISA_testes/testes_qm_xtb/QM_analysis/QM_FRAMES_CAPPED/frame_4000ps/complex_capped_4000ps.xyz
          omp threads                :                    16


molecular fragmentation (1/2 indicates fragments):
111111111111111111111111111111111111111111111111111111111112222222222222
222222222222222222222222222222222222222222222222222222222222222222222222
22222222222222222222222222222222222222222
# atoms in fragment 1/2:    59   126
 fragment masses (1/2) :      475.60      831.06
CMA distance (Bohr)    :  19.990
constraining FC (au)   :  0.0500

           -------------------------------------------------
          |                 G F N 2 - x T B                 |
           -------------------------------------------------

        Reference                      10.1021/acs.jctc.8b01176
      * Hamiltonian:
        H0-scaling (s, p, d)           1.850000    2.230000    2.230000
        zeta-weighting                 0.500000
      * Dispersion:
        s8                             2.700000
        a1                             0.520000
        a2                             5.000000
        s9                             5.000000
      * Repulsion:
        kExp                           1.500000    1.000000
        rExp                           1.000000
      * Coulomb:
        alpha                          2.000000
        third order                    shell-resolved
        anisotropic                    true
        a3                             3.000000
        a5                             4.000000
        cn-shift                       1.200000
        cn-exp                         4.000000
        max-rad                        5.000000

      * Solvation model:               ALPB
        Solvent                        water
        Parameter file                 internal GFN2-xTB/ALPB
        Dielectric constant                8.0200E+01
        Reference state                gsolv [1 M gas/solution]
        Free energy shift                  1.0808E-03 Eh       6.7819E-01 kcal/mol
        Temperature                        2.9815E+02 K
        Density                            1.0000E+00 kg/L
        Solvent mass                       1.8000E+01 g/mol
        Interaction kernel             P16
        Born radius scaling (c1)           1.4744E+00
        Born radii integrator          GBOBC
        Born offset                        0.0000E+00 a0       0.0000E+00 AA
        H-bond correction              true
        Ion screening                  false
        Surface tension                    1.0000E-05 Eh       1.5569E+01 dyn/cm
        Grid points                               230 per atom

          ...................................................
          :                      SETUP                      :
          :.................................................:
          :  # basis functions                 473          :
          :  # atomic orbitals                 471          :
          :  # shells                          279          :
          :  # electrons                       498          :
          :  max. iterations                   250          :
          :  Hamiltonian                  GFN2-xTB          :
          :  restarted?                      false          :
          :  GBSA solvation                   true          :
          :  PC potential                    false          :
          :  electronic temp.         1500.0000000     K    :
          :  accuracy                    1.0000000          :
          :  -> integral cutoff          0.2500000E+02      :
          :  -> integral neglect         0.1000000E-07      :
          :  -> SCF convergence          0.1000000E-05 Eh   :
          :  -> wf. convergence          0.1000000E-03 e    :
          :  Broyden damping             0.4000000          :
          :  net charge                          1          :
          :  unpaired electrons                  0          :
          ...................................................

 iter      E             dE          RMSdq      gap      omega  full diag
   1   -279.9450798 -0.279945E+03  0.444E+00    0.02       0.0  T
   2   -280.2639560 -0.318876E+00  0.264E+00    1.38       1.0  T
   3   -280.1483523  0.115604E+00  0.184E+00    0.02       1.0  T
   4   -280.4149984 -0.266646E+00  0.870E-01    0.55       1.0  T
   5   -280.4094470  0.555139E-02  0.751E-01    0.05       1.0  T
   6   -280.5229392 -0.113492E+00  0.208E-01    0.24       1.0  T
   7   -280.5160113  0.692783E-02  0.243E-01    0.19       1.0  T
   8   -280.5217881 -0.577679E-02  0.164E-01    0.22       1.0  T
   9   -280.5243728 -0.258470E-02  0.106E-01    0.22       1.0  T
  10   -280.5258039 -0.143109E-02  0.541E-02    0.29       1.0  T
  11   -280.5260151 -0.211136E-03  0.373E-02    0.28       1.0  T
  12   -280.5262064 -0.191363E-03  0.179E-02    0.26       1.0  T
  13   -280.5262337 -0.273153E-04  0.102E-02    0.27       1.0  T
  14   -280.5262363 -0.252527E-05  0.880E-03    0.27       1.0  T
  15   -280.5262456 -0.931485E-05  0.473E-03    0.27       1.6  T
  16   -280.5262494 -0.378085E-05  0.131E-03    0.27       5.6  T
  17   -280.5262495 -0.181058E-06  0.510E-04    0.27      14.4  T
  18   -280.5262496 -0.289766E-07  0.192E-04    0.27      38.2  T

   *** convergence criteria satisfied after 18 iterations ***

         #    Occupation            Energy/Eh            Energy/eV
      -------------------------------------------------------------
         1        2.0000           -0.7943208             -21.6146
       ...           ...                  ...                  ...
       243        1.9793           -0.3749437             -10.2027
       244        1.9726           -0.3735768             -10.1655
       245        1.8527           -0.3652957              -9.9402
       246        1.8378           -0.3648005              -9.9267
       247        1.8194           -0.3642434              -9.9116
       248        1.8151           -0.3641197              -9.9082
       249        1.7675           -0.3629054              -9.8752 (HOMO)
       250        0.9670           -0.3529564              -9.6044 (LUMO)
       251        0.0000           -0.2941346              -8.0038
       252        0.0000           -0.2902059              -7.8969
       253        0.0000           -0.2877398              -7.8298
       254        0.0000           -0.2864142              -7.7937
       ...           ...                  ...                  ...
       471                          1.0788830              29.3579
      -------------------------------------------------------------
                  HL-Gap            0.0099490 Eh            0.2707 eV
             Fermi-level           -0.3532702 Eh           -9.6130 eV

 SCC (total)                   0 d,  0 h,  0 min,  1.470 sec
 SCC setup                      ...        0 min,  0.008 sec (  0.532%)
 Dispersion                     ...        0 min,  0.014 sec (  0.982%)
 classical contributions        ...        0 min,  0.002 sec (  0.147%)
 integral evaluation            ...        0 min,  0.038 sec (  2.596%)
 iterations                     ...        0 min,  1.267 sec ( 86.214%)
 molecular gradient             ...        0 min,  0.134 sec (  9.139%)
 printout                       ...        0 min,  0.006 sec (  0.387%)

         :::::::::::::::::::::::::::::::::::::::::::::::::::::
         ::                     SUMMARY                     ::
         :::::::::::::::::::::::::::::::::::::::::::::::::::::
         :: total energy            -276.930271956185 Eh    ::
         :: total w/o Gsasa/hb      -276.906360870360 Eh    ::
         :: gradient norm              0.254237120010 Eh/a0 ::
         :: HOMO-LUMO gap              0.270725503462 eV    ::
         ::.................................................::
         :: SCC energy              -280.516714860429 Eh    ::
         :: -> isotropic ES            0.541643422596 Eh    ::
         :: -> anisotropic ES         -0.012232633747 Eh    ::
         :: -> anisotropic XC          0.139524614903 Eh    ::
         :: -> dispersion             -0.213049504023 Eh    ::
         :: -> Gsolv                  -0.156271496188 Eh    ::
         ::    -> Gelec               -0.132360410363 Eh    ::
         ::    -> Gsasa                0.003115137485 Eh    ::
         ::    -> Ghb                 -0.028106983008 Eh    ::
         ::    -> Gshift               0.001080759698 Eh    ::
         :: repulsion energy           3.586442904244 Eh    ::
         :: add. restraining           0.000000000000 Eh    ::
         :: total charge               1.000000000128 e     ::
         :::::::::::::::::::::::::::::::::::::::::::::::::::::

           -------------------------------------------------
          |                Property Printout                |
           -------------------------------------------------

    * Orbital Energies and Occupations

         #    Occupation            Energy/Eh            Energy/eV
      -------------------------------------------------------------
         1        2.0000           -0.7943208             -21.6146
       ...           ...                  ...                  ...
       237        1.9999           -0.3986970             -10.8491
       238        1.9999           -0.3985567             -10.8453
       239        1.9998           -0.3971127             -10.8060
       240        1.9997           -0.3943812             -10.7317
       241        1.9986           -0.3876762             -10.5492
       242        1.9913           -0.3790964             -10.3157
       243        1.9793           -0.3749437             -10.2027
       244        1.9726           -0.3735768             -10.1655
       245        1.8527           -0.3652957              -9.9402
       246        1.8378           -0.3648005              -9.9267
       247        1.8194           -0.3642434              -9.9116
       248        1.8151           -0.3641197              -9.9082
       249        1.7675           -0.3629054              -9.8752 (HOMO)
       250        0.9670           -0.3529564              -9.6044 (LUMO)
       251        0.0000           -0.2941346              -8.0038
       252        0.0000           -0.2902059              -7.8969
       253        0.0000           -0.2877398              -7.8298
       254        0.0000           -0.2864142              -7.7937
       255        0.0000           -0.2861399              -7.7863
       256        0.0000           -0.2737493              -7.4491
       257                         -0.2581979              -7.0259
       258                         -0.2546580              -6.9296
       259                         -0.2343582              -6.3772
       260                         -0.2327082              -6.3323
       ...                                ...                  ...
       471                          1.0788830              29.3579
      -------------------------------------------------------------
                  HL-Gap            0.0099490 Eh            0.2707 eV
             Fermi-level           -0.3532702 Eh           -9.6130 eV

     #   Z          covCN         q      C6AA      α(0)
     1   6 C        2.743     0.259    22.640     7.791
     2   7 N        2.691    -0.118    23.568     7.210
     3   6 C        2.871     0.033    27.255     8.558
     4   6 C        3.678     0.077    19.500     6.326
     5   6 C        3.807    -0.067    21.770     6.642
     6   6 C        2.966     0.017    27.629     8.622
     7   6 C        2.919    -0.045    29.122     8.849
     8   6 C        2.907    -0.036    28.905     8.816
     9   6 C        2.911    -0.033    28.824     8.804
    10   6 C        2.913    -0.032    28.800     8.800
    11   6 C        2.909    -0.043    29.056     8.839
    12   8 O        1.705    -0.283    18.690     5.837
    13   8 O        0.856    -0.495    23.667     6.523
    14   6 C        2.704     0.332    21.359     7.565
    15   6 C        3.749    -0.131    23.085     6.853
    16   6 C        3.866     0.013    20.320     6.410
    17   8 O        0.858    -0.468    23.079     6.441
    18   6 C        3.791    -0.032    21.160     6.551
    19  16 S        1.964    -0.176   148.486    20.509
    20   6 C        3.791    -0.040    21.299     6.572
    21   6 C        3.894     0.027    20.060     6.367
    22   7 N        2.730    -0.289    27.433     7.779
    23  16 S        3.891     1.146   102.569    17.046
    24   6 C        2.970    -0.086    30.160     9.008
    25   6 C        2.950    -0.032    28.792     8.801
    26   6 C        2.929    -0.038    28.954     8.824
    27   6 C        2.960     0.038    27.149     8.546
    28   6 C        2.916    -0.033    28.823     8.804
    29   6 C        2.941    -0.028    28.701     8.786
    30   8 O        0.859    -0.687    28.347     7.138
    31   8 O        0.860    -0.658    27.575     7.041
    32   6 C        3.752    -0.133    23.116     6.856
    33   1 H        0.860     0.240     0.923     1.505
    34   1 H        0.924     0.067     2.120     2.277
    35   1 H        0.923     0.055     2.262     2.352
    36   1 H        0.923     0.087     1.912     2.162
    37   1 H        0.924     0.083     1.953     2.185
    38   1 H        0.925     0.051     2.303     2.373
    39   1 H        0.924     0.052     2.298     2.371
    40   1 H        0.925     0.051     2.311     2.377
    41   1 H        0.925     0.045     2.380     2.413
    42   1 H        0.925     0.038     2.471     2.458
    43   1 H        0.924     0.061     2.191     2.315
    44   1 H        0.925     0.071     2.078     2.255
    45   1 H        0.923     0.075     2.037     2.232
    46   1 H        0.923     0.040     2.449     2.448
    47   1 H        0.924     0.071     2.079     2.255
    48   1 H        0.923     0.086     1.922     2.168
    49   1 H        0.925     0.096     1.821     2.110
    50   1 H        0.924     0.100     1.789     2.092
    51   1 H        0.924     0.088     1.899     2.155
    52   1 H        0.924     0.094     1.841     2.122
    53   1 H        0.925     0.072     2.063     2.246
    54   1 H        0.925     0.095     1.830     2.115
    55   1 H        0.924     0.082     1.956     2.187
    56   1 H        0.925     0.056     2.243     2.342
    57   1 H        0.925     0.093     1.854     2.129
    58   1 H        0.924     0.075     2.031     2.229
    59   1 H        0.923     0.078     1.999     2.211
    60   7 N        2.632    -0.330    28.508     7.930
    61   1 H        0.860     0.189     1.166     1.691
    62   6 C        3.784     0.040    19.920     6.357
    63   1 H        0.924     0.095     1.833     2.117
    64   6 C        3.810    -0.077    21.967     6.671
    65   1 H        0.924     0.072     2.063     2.246
    66   1 H        0.924     0.069     2.098     2.265
    67   6 C        2.965     0.009    27.809     8.650
    68   6 C        2.918    -0.043    29.080     8.843
    69   1 H        0.926     0.044     2.400     2.423
    70   6 C        2.905    -0.038    28.946     8.822
    71   1 H        0.926     0.040     2.446     2.446
    72   6 C        2.920    -0.041    29.017     8.834
    73   1 H        0.926     0.039     2.463     2.454
    74   6 C        2.908    -0.038    28.936     8.820
    75   1 H        0.926     0.048     2.341     2.393
    76   6 C        2.913    -0.039    28.981     8.828
    77   1 H        0.925     0.031     2.568     2.506
    78   6 C        2.758     0.211    23.529     7.943
    79   8 O        0.857    -0.375    21.180     6.170
    80   7 N        2.640    -0.327    28.428     7.919
    81   1 H        0.860     0.186     1.180     1.702
    82   6 C        3.786     0.037    19.961     6.364
    83   1 H        0.924     0.089     1.892     2.151
    84   6 C        3.816    -0.075    21.918     6.663
    85   1 H        0.925     0.056     2.247     2.344
    86   1 H        0.925     0.082     1.953     2.186
    87   6 C        2.962     0.008    27.844     8.655
    88   6 C        2.916    -0.043    29.057     8.839
    89   1 H        0.926     0.036     2.502     2.474
    90   6 C        2.904    -0.032    28.804     8.800
    91   1 H        0.925     0.041     2.434     2.440
    92   6 C        2.916    -0.038    28.938     8.821
    93   1 H        0.926     0.033     2.548     2.496
    94   6 C        2.908    -0.039    28.974     8.826
    95   1 H        0.926     0.045     2.385     2.415
    96   6 C        2.915    -0.045    29.118     8.849
    97   1 H        0.925     0.050     2.321     2.382
    98   6 C        2.757     0.210    23.547     7.946
    99   8 O        0.856    -0.372    21.137     6.164
   100   7 N        2.631    -0.340    28.754     7.964
   101   1 H        0.860     0.186     1.178     1.701
   102   6 C        3.786     0.042    19.878     6.350
   103   1 H        0.925     0.093     1.847     2.125
   104   6 C        3.811    -0.070    21.829     6.650
   105   1 H        0.924     0.064     2.155     2.295
   106   1 H        0.924     0.061     2.190     2.314
   107   6 C        2.959    -0.002    28.084     8.692
   108   6 C        2.913    -0.047    29.171     8.857
   109   1 H        0.925     0.049     2.327     2.385
   110   6 C        2.908    -0.060    29.481     8.903
   111   1 H        0.926     0.047     2.360     2.402
   112   6 C        2.838     0.143    24.880     8.174
   113   8 O        1.660    -0.447    21.788     6.301
   114   1 H        0.806     0.365     0.555     1.170
   115   6 C        2.905    -0.074    29.841     8.957
   116   1 H        0.926     0.056     2.248     2.345
   117   6 C        2.914    -0.043    29.056     8.839
   118   1 H        0.925     0.043     2.412     2.429
   119   6 C        2.760     0.203    23.686     7.970
   120   8 O        0.858    -0.385    21.387     6.200
   121   7 N        2.638    -0.307    27.913     7.847
   122   1 H        0.860     0.181     1.209     1.722
   123   6 C        3.789     0.050    19.753     6.330
   124   1 H        0.924     0.067     2.119     2.277
   125   6 C        3.809    -0.074    21.913     6.663
   126   1 H        0.925     0.089     1.893     2.152
   127   1 H        0.924     0.076     2.020     2.223
   128   6 C        3.025     0.046    26.936     8.513
   129   7 N        1.959    -0.300    28.593     7.930
   130   6 C        2.986     0.083    26.151     8.388
   131   1 H        0.925     0.040     2.445     2.445
   132   7 N        2.790    -0.093    23.049     7.130
   133   1 H        0.860     0.191     1.153     1.682
   134   6 C        3.038    -0.029    28.694     8.786
   135   1 H        0.925     0.056     2.241     2.341
   136   6 C        2.760     0.214    23.471     7.934
   137   8 O        0.856    -0.353    20.765     6.109
   138   7 N        2.640    -0.326    28.392     7.914
   139   1 H        0.860     0.193     1.144     1.675
   140   6 C        3.788     0.026    20.152     6.394
   141   1 H        0.923     0.070     2.082     2.256
   142   6 C        3.863    -0.018    20.854     6.494
   143   1 H        0.924     0.054     2.265     2.354
   144   6 C        3.760    -0.112    22.690     6.791
   145   1 H        0.925     0.047     2.352     2.398
   146   1 H        0.925     0.044     2.394     2.420
   147   1 H        0.925     0.043     2.413     2.429
   148   6 C        3.812    -0.060    21.645     6.622
   149   1 H        0.925     0.033     2.541     2.493
   150   1 H        0.924     0.042     2.428     2.437
   151   6 C        3.750    -0.109    22.656     6.788
   152   1 H        0.925     0.042     2.428     2.437
   153   1 H        0.924     0.030     2.586     2.515
   154   1 H        0.923     0.042     2.426     2.436
   155   6 C        2.750     0.271    22.415     7.752
   156   8 O        0.860    -0.512    24.048     6.575
   157   7 N        2.689    -0.154    24.332     7.326
   158   1 H        0.860     0.232     0.957     1.533
   159   6 C        3.794     0.032    20.046     6.376
   160   1 H        0.925     0.079     1.987     2.204
   161   6 C        3.859    -0.019    20.869     6.497
   162   1 H        0.924     0.063     2.159     2.298
   163   6 C        3.752    -0.124    22.935     6.829
   164   1 H        0.925     0.071     2.078     2.254
   165   1 H        0.925     0.038     2.472     2.459
   166   1 H        0.924     0.035     2.513     2.479
   167   6 C        3.802    -0.060    21.648     6.624
   168   1 H        0.925     0.033     2.544     2.494
   169   1 H        0.924     0.040     2.451     2.448
   170   6 C        3.749    -0.118    22.826     6.814
   171   1 H        0.924     0.048     2.345     2.395
   172   1 H        0.924     0.052     2.301     2.372
   173   1 H        0.925     0.050     2.317     2.381
   174   6 C        2.763     0.206    23.618     7.959
   175   8 O        0.856    -0.365    20.990     6.143
   176   1 H        0.860     0.208     1.065     1.617
   177   1 H        0.923     0.072     2.062     2.246
   178   1 H        0.860     0.200     1.104     1.646
   179   1 H        0.923     0.063     2.166     2.301
   180   1 H        0.860     0.195     1.134     1.668
   181   1 H        0.923     0.081     1.973     2.197
   182   1 H        0.860     0.202     1.096     1.640
   183   1 H        0.923     0.070     2.086     2.259
   184   1 H        0.860     0.208     1.065     1.617
   185   1 H        0.923     0.073     2.057     2.243

 Mol. C6AA /au·bohr⁶  :     361598.020872
 Mol. C8AA /au·bohr⁸  :    8613428.098359
 Mol. α(0) /au        :        928.437237


Wiberg/Mayer (AO) data.
largest (>0.10) Wiberg bond orders for each atom

 ---------------------------------------------------------------------------
     #   Z sym  total        # sym  WBO       # sym  WBO       # sym  WBO
 ---------------------------------------------------------------------------
     1   6 C    3.875 --    17 O    1.663     2 N    1.180    21 C    0.932
     2   7 N    3.496 --     3 C    1.190     1 C    1.180    33 H    0.890
                            17 O    0.134
     3   6 C    3.495 --     2 N    1.190    14 C    1.087     5 C    1.029
     4   6 C    3.910 --    15 C    1.012    35 H    0.971    34 H    0.964
                            12 O    0.929
     5   6 C    3.968 --     3 C    1.029    36 H    0.959     6 C    0.958
                            37 H    0.948
     6   6 C    3.944 --    11 C    1.423     7 C    1.393     5 C    0.958
                             9 C    0.106
     7   6 C    3.980 --     8 C    1.458     6 C    1.393    38 H    0.963
                            10 C    0.110
     8   6 C    3.985 --     7 C    1.458     9 C    1.419    39 H    0.968
                            11 C    0.111
     9   6 C    3.979 --    10 C    1.451     8 C    1.419    40 H    0.967
                             6 C    0.106
    10   6 C    3.985 --     9 C    1.451    11 C    1.423    41 H    0.969
                             7 C    0.110
    11   6 C    3.981 --     6 C    1.423    10 C    1.423    42 H    0.969
                             8 C    0.111
    12   8 O    2.248 --    14 C    1.102     4 C    0.929    13 O    0.155
    13   8 O    1.871 --    14 C    1.605    12 O    0.155
    14   6 C    3.872 --    13 O    1.605    12 O    1.102     3 C    1.087
    15   6 C    3.981 --     4 C    1.012    43 H    0.986    44 H    0.981
                            45 H    0.980
    16   6 C    3.963 --    18 C    1.003    22 N    0.978    46 H    0.971
                            47 H    0.964
    17   8 O    1.915 --     1 C    1.663     2 N    0.134
    18   6 C    3.969 --    16 C    1.003    19 S    0.990    49 H    0.964
                            48 H    0.956
    19  16 S    2.087 --    20 C    0.991    18 C    0.990
    20   6 C    3.970 --    19 S    0.991    21 C    0.990    50 H    0.962
                            51 H    0.958
    21   6 C    3.959 --    20 C    0.990    22 N    0.986     1 C    0.932
                            52 H    0.919
    22   7 N    3.155 --    21 C    0.986    16 C    0.978    23 S    0.869
    23  16 S    4.801 --    31 O    1.569    30 O    1.533    22 N    0.869
                            24 C    0.723
    24   6 C    3.925 --    25 C    1.407    29 C    1.393    23 S    0.723
    25   6 C    3.978 --    26 C    1.439    24 C    1.407    53 H    0.963
                            28 C    0.102
    26   6 C    3.979 --    25 C    1.439    27 C    1.401    54 H    0.959
                            29 C    0.104
    27   6 C    3.977 --    26 C    1.401    28 C    1.392    32 C    1.027
    28   6 C    3.981 --    29 C    1.451    27 C    1.392    55 H    0.962
                            25 C    0.102
    29   6 C    3.984 --    28 C    1.451    24 C    1.393    56 H    0.965
                            26 C    0.104
    30   8 O    1.813 --    23 S    1.533
    31   8 O    1.842 --    23 S    1.569
    32   6 C    3.984 --    27 C    1.027    59 H    0.975    58 H    0.975
                            57 H    0.953
    33   1 H    0.941 --     2 N    0.890
    34   1 H    0.992 --     4 C    0.964
    35   1 H    0.995 --     4 C    0.971
    36   1 H    0.989 --     5 C    0.959
    37   1 H    0.981 --     5 C    0.948
    38   1 H    0.996 --     7 C    0.963
    39   1 H    0.997 --     8 C    0.968
    40   1 H    0.996 --     9 C    0.967
    41   1 H    0.996 --    10 C    0.969
    42   1 H    0.998 --    11 C    0.969
    43   1 H    0.996 --    15 C    0.986
    44   1 H    0.994 --    15 C    0.981
    45   1 H    0.994 --    15 C    0.980
    46   1 H    0.998 --    16 C    0.971
    47   1 H    0.995 --    16 C    0.964
    48   1 H    0.991 --    18 C    0.956
    49   1 H    0.990 --    18 C    0.964
    50   1 H    0.988 --    20 C    0.962
    51   1 H    0.992 --    20 C    0.958
    52   1 H    0.987 --    21 C    0.919
    53   1 H    0.995 --    25 C    0.963
    54   1 H    0.990 --    26 C    0.959
    55   1 H    0.992 --    28 C    0.962
    56   1 H    0.996 --    29 C    0.965
    57   1 H    0.991 --    32 C    0.953
    58   1 H    0.994 --    32 C    0.975
    59   1 H    0.993 --    32 C    0.975
    60   7 N    2.983 --    62 C    1.030    61 H    0.949   176 H    0.943
    61   1 H    0.964 --    60 N    0.949
    62   6 C    3.966 --    60 N    1.030    78 C    0.983    63 H    0.939
                            64 C    0.924
    63   1 H    0.987 --    62 C    0.939
    64   6 C    3.961 --    67 C    1.012    65 H    0.965    66 H    0.961
                            62 C    0.924
    65   1 H    0.994 --    64 C    0.965
    66   1 H    0.993 --    64 C    0.961
    67   6 C    3.980 --    68 C    1.421    76 C    1.392    64 C    1.012
                            72 C    0.105
    68   6 C    3.982 --    70 C    1.428    67 C    1.421    69 H    0.968
                            74 C    0.110
    69   1 H    0.998 --    68 C    0.968
    70   6 C    3.989 --    72 C    1.450    68 C    1.428    71 H    0.971
                            76 C    0.111
    71   1 H    0.998 --    70 C    0.971
    72   6 C    3.980 --    70 C    1.450    74 C    1.420    73 H    0.972
                            67 C    0.105
    73   1 H    0.998 --    72 C    0.972
    74   6 C    3.988 --    76 C    1.459    72 C    1.420    75 H    0.970
                            68 C    0.110
    75   1 H    0.997 --    74 C    0.970
    76   6 C    3.983 --    74 C    1.459    67 C    1.392    77 H    0.968
                            70 C    0.111
    77   1 H    0.999 --    76 C    0.968
    78   6 C    3.874 --    79 O    1.895    62 C    0.983   177 H    0.934
    79   8 O    2.040 --    78 C    1.895
    80   7 N    2.981 --    82 C    1.025    81 H    0.951   178 H    0.944
    81   1 H    0.965 --    80 N    0.951
    82   6 C    3.971 --    80 N    1.025    98 C    0.980    84 C    0.938
                            83 H    0.938
    83   1 H    0.988 --    82 C    0.938
    84   6 C    3.975 --    87 C    1.006    85 H    0.968    86 H    0.965
                            82 C    0.938
    85   1 H    0.997 --    84 C    0.968
    86   1 H    0.993 --    84 C    0.965
    87   6 C    3.983 --    96 C    1.415    88 C    1.408    84 C    1.006
                            92 C    0.108
    88   6 C    3.988 --    90 C    1.448    87 C    1.408    89 H    0.969
                            94 C    0.111
    89   1 H    0.999 --    88 C    0.969
    90   6 C    3.989 --    88 C    1.448    92 C    1.431    91 H    0.970
                            96 C    0.111
    91   1 H    0.998 --    90 C    0.970
    92   6 C    3.986 --    94 C    1.441    90 C    1.431    93 H    0.970
                            87 C    0.108
    93   1 H    0.998 --    92 C    0.970
    94   6 C    3.988 --    92 C    1.441    96 C    1.439    95 H    0.955
                            88 C    0.111
    95   1 H    0.998 --    94 C    0.955
    96   6 C    3.985 --    94 C    1.439    87 C    1.415    97 H    0.968
                            90 C    0.111
    97   1 H    0.997 --    96 C    0.968
    98   6 C    3.871 --    99 O    1.892    82 C    0.980   179 H    0.933
    99   8 O    2.046 --    98 C    1.892
   100   7 N    2.989 --   102 C    1.031   180 H    0.949   101 H    0.949
   101   1 H    0.965 --   100 N    0.949
   102   6 C    3.970 --   100 N    1.031   119 C    0.973   104 C    0.943
                           103 H    0.933
   103   1 H    0.989 --   102 C    0.933
   104   6 C    3.978 --   107 C    1.007   106 H    0.967   105 H    0.965
                           102 C    0.943
   105   1 H    0.994 --   104 C    0.965
   106   1 H    0.996 --   104 C    0.967
   107   6 C    3.978 --   117 C    1.420   108 C    1.385   104 C    1.007
   108   6 C    3.985 --   110 C    1.472   107 C    1.385   109 H    0.967
                           115 C    0.106
   109   1 H    0.997 --   108 C    0.967
   110   6 C    3.984 --   108 C    1.472   112 C    1.347   111 H    0.966
                           117 C    0.103
   111   1 H    0.997 --   110 C    0.966
   112   6 C    3.929 --   115 C    1.377   110 C    1.347   113 O    1.074
   113   8 O    2.073 --   112 C    1.074   114 H    0.846
   114   1 H    0.867 --   113 O    0.846
   115   6 C    3.981 --   117 C    1.439   112 C    1.377   116 H    0.966
                           108 C    0.106
   116   1 H    0.997 --   115 C    0.966
   117   6 C    3.985 --   115 C    1.439   107 C    1.420   118 H    0.966
                           110 C    0.103
   118   1 H    0.998 --   117 C    0.966
   119   6 C    3.859 --   120 O    1.884   102 C    0.973   181 H    0.934
   120   8 O    2.030 --   119 C    1.884
   121   7 N    2.997 --   123 C    1.015   122 H    0.943   182 H    0.940
   122   1 H    0.967 --   121 N    0.943
   123   6 C    3.967 --   121 N    1.015   136 C    0.969   124 H    0.960
                           125 C    0.945
   124   1 H    0.992 --   123 C    0.960
   125   6 C    3.961 --   128 C    1.010   127 H    0.964   126 H    0.951
                           123 C    0.945
   126   1 H    0.991 --   125 C    0.951
   127   1 H    0.994 --   125 C    0.964
   128   6 C    3.959 --   134 C    1.552   129 N    1.265   125 C    1.010
   129   7 N    2.983 --   130 C    1.520   128 C    1.265   132 N    0.103
   130   6 C    3.949 --   129 N    1.520   132 N    1.289   131 H    0.963
                           134 C    0.116
   131   1 H    0.998 --   130 C    0.963
   132   7 N    3.593 --   130 C    1.289   134 C    1.205   133 H    0.930
                           129 N    0.103
   133   1 H    0.963 --   132 N    0.930
   134   6 C    3.915 --   128 C    1.552   132 N    1.205   135 H    0.963
                           130 C    0.116
   135   1 H    0.996 --   134 C    0.963
   136   6 C    3.872 --   137 O    1.899   123 C    0.969   183 H    0.938
   137   8 O    2.067 --   136 C    1.899
   138   7 N    2.962 --   140 C    1.024   184 H    0.941   139 H    0.935
   139   1 H    0.962 --   138 N    0.935
   140   6 C    3.953 --   138 N    1.024   141 H    0.953   155 C    0.941
                           142 C    0.935
   141   1 H    0.992 --   140 C    0.953
   142   6 C    3.955 --   144 C    1.009   148 C    0.990   143 H    0.961
                           140 C    0.935
   143   1 H    0.996 --   142 C    0.961
   144   6 C    3.989 --   142 C    1.009   147 H    0.980   145 H    0.979
                           146 H    0.979
   145   1 H    0.995 --   144 C    0.979
   146   1 H    0.998 --   144 C    0.979
   147   1 H    0.998 --   144 C    0.980
   148   6 C    3.986 --   151 C    1.017   142 C    0.990   149 H    0.973
                           150 H    0.972
   149   1 H    0.998 --   148 C    0.973
   150   1 H    0.998 --   148 C    0.972
   151   6 C    3.990 --   148 C    1.017   153 H    0.987   152 H    0.985
                           154 H    0.985
   152   1 H    0.997 --   151 C    0.985
   153   1 H    0.999 --   151 C    0.987
   154   1 H    0.998 --   151 C    0.985
   155   6 C    3.939 --   156 O    1.603   157 N    1.324   140 C    0.941
   156   8 O    1.912 --   155 C    1.603   157 N    0.196
   157   7 N    3.486 --   155 C    1.324   159 C    0.974   158 H    0.894
                           156 O    0.196
   158   1 H    0.946 --   157 N    0.894
   159   6 C    3.963 --   174 C    0.981   157 N    0.974   160 H    0.954
                           161 C    0.942
   160   1 H    0.993 --   159 C    0.954
   161   6 C    3.982 --   163 C    1.000   167 C    0.994   162 H    0.956
                           159 C    0.942
   162   1 H    0.996 --   161 C    0.956
   163   6 C    3.992 --   161 C    1.000   165 H    0.988   166 H    0.988
                           164 H    0.978
   164   1 H    0.994 --   163 C    0.978
   165   1 H    0.998 --   163 C    0.988
   166   1 H    0.999 --   163 C    0.988
   167   6 C    3.994 --   170 C    1.012   161 C    0.994   169 H    0.979
                           168 H    0.974
   168   1 H    0.999 --   167 C    0.974
   169   1 H    0.998 --   167 C    0.979
   170   6 C    3.991 --   167 C    1.012   173 H    0.986   171 H    0.984
                           172 H    0.982
   171   1 H    0.997 --   170 C    0.984
   172   1 H    0.997 --   170 C    0.982
   173   1 H    0.997 --   170 C    0.986
   174   6 C    3.885 --   175 O    1.898   159 C    0.981   185 H    0.938
   175   8 O    2.051 --   174 C    1.898
   176   1 H    0.957 --    60 N    0.943
   177   1 H    0.993 --    78 C    0.934
   178   1 H    0.959 --    80 N    0.944
   179   1 H    0.990 --    98 C    0.933
   180   1 H    0.962 --   100 N    0.949
   181   1 H    0.989 --   119 C    0.934
   182   1 H    0.959 --   121 N    0.940
   183   1 H    0.991 --   136 C    0.938
   184   1 H    0.956 --   138 N    0.941
   185   1 H    0.994 --   174 C    0.938
 ---------------------------------------------------------------------------

Topologies differ in total number of bonds
Writing topology from bond orders to xtbtopo.mol

molecular dipole:
                 x           y           z       tot (Debye)
 q only:       41.394      14.303      90.549
   full:       41.354      14.437      91.068     256.853
molecular quadrupole (traceless):
                xx          xy          yy          xz          yz          zz
 q only:    -2443.713     850.103   -4789.916    5575.445    2006.101    7233.629
Note: The following floating-point exceptions are signalling: IEEE_UNDERFLOW_FLAG IEEE_DENORMAL
normal termination of xtb
  q+dip:    -2504.681     875.047   -4842.875    5599.063    2030.035    7347.556
   full:    -2502.062     871.413   -4842.060    5600.879    2031.009    7344.122


           -------------------------------------------------
          | TOTAL ENERGY             -276.930271956185 Eh   |
          | GRADIENT NORM               0.254237120010 Eh/α |
          | HOMO-LUMO GAP               0.270725503462 eV   |
           -------------------------------------------------

------------------------------------------------------------------------
 * finished run on 2026/01/05 at 09:07:27.998     
------------------------------------------------------------------------
 total:
 * wall-time:     0 d,  0 h,  0 min,  1.551 sec
 *  cpu-time:     0 d,  0 h,  0 min, 22.502 sec
 * ratio c/w:    14.505 speedup
 SCF:
 * wall-time:     0 d,  0 h,  0 min,  1.472 sec
 *  cpu-time:     0 d,  0 h,  0 min, 21.369 sec
 * ratio c/w:    14.519 speedup

