      -----------------------------------------------------------      
     |                   =====================                   |     
     |                           x T B                           |     
     |                   =====================                   |     
     |                         S. Grimme                         |     
     |          Mulliken Center for Theoretical Chemistry        |     
     |                    University of Bonn                     |     
      -----------------------------------------------------------      

   * xtb version 6.7.1 (edcfbbe) compiled by 'conda@c0858423619e' on 2025-09-04

   xtb is free software: you can redistribute it and/or modify it under
   the terms of the GNU Lesser General Public License as published by
   the Free Software Foundation, either version 3 of the License, or
   (at your option) any later version.
   
   xtb is distributed in the hope that it will be useful,
   but WITHOUT ANY WARRANTY; without even the implied warranty of
   MERCHANTABILITY or FITNESS FOR A PARTICULAR PURPOSE.  See the
   GNU Lesser General Public License for more details.
   
   Cite this work as:
   * C. Bannwarth, E. Caldeweyher, S. Ehlert, A. Hansen, P. Pracht,
     J. Seibert, S. Spicher, S. Grimme, WIREs Comput. Mol. Sci., 2020, 11,
     e01493. DOI: 10.1002/wcms.1493
   
   for GFN2-xTB:
   * C. Bannwarth, S. Ehlert and S. Grimme., J. Chem. Theory Comput., 2019,
     15, 1652-1671. DOI: 10.1021/acs.jctc.8b01176
   for GFN1-xTB:
   * S. Grimme, C. Bannwarth, P. Shushkov, J. Chem. Theory Comput., 2017,
     13, 1989-2009. DOI: 10.1021/acs.jctc.7b00118
   for GFN0-xTB:
   * P. Pracht, E. Caldeweyher, S. Ehlert, S. Grimme, ChemRxiv, 2019, preprint.
     DOI: 10.26434/chemrxiv.8326202.v1
   for GFN-FF:
   * S. Spicher and S. Grimme, Angew. Chem. Int. Ed., 2020, 59, 15665-15673.
     DOI: 10.1002/anie.202004239
   
   for ALPB and GBSA implicit solvation:
   * S. Ehlert, M. Stahn, S. Spicher, S. Grimme, J. Chem. Theory Comput.,
     2021, 17, 4250-4261. DOI: 10.1021/acs.jctc.1c00471
   
   for ddCOSMO and CPCM-X implicit solvation:
   * M. Stahn, S. Ehlert, S. Grimme, J. Phys. Chem. A,
     2023, XX, XXXX-XXXX. DOI: 10.1021/acs.jpca.3c04382
   
   for DFT-D4:
   * E. Caldeweyher, C. Bannwarth and S. Grimme, J. Chem. Phys., 2017,
     147, 034112. DOI: 10.1063/1.4993215
   * E. Caldeweyher, S. Ehlert, A. Hansen, H. Neugebauer, S. Spicher,
     C. Bannwarth and S. Grimme, J. Chem. Phys., 2019, 150, 154122.
     DOI: 10.1063/1.5090222
   * E. Caldeweyher, J.-M. Mewes, S. Ehlert and S. Grimme, Phys. Chem. Chem. Phys.
     2020, 22, 8499-8512. DOI: 10.1039/D0CP00502A
   
   for sTDA-xTB:
   * S. Grimme and C. Bannwarth, J. Chem. Phys., 2016, 145, 054103.
     DOI: 10.1063/1.4959605
   
   in the mass-spec context:
   * V. Asgeirsson, C. Bauer and S. Grimme, Chem. Sci., 2017, 8, 4879.
     DOI: 10.1039/c7sc00601b
   * J. Koopman and S. Grimme, ACS Omega 2019, 4, 12, 15120-15133.
     DOI: 10.1021/acsomega.9b02011
   
   for metadynamics refer to:
   * S. Grimme, J. Chem. Theory Comput., 2019, 155, 2847-2862
     DOI: 10.1021/acs.jctc.9b00143
   
   for SPH calculations refer to:
   * S. Spicher and S. Grimme, J. Chem. Theory Comput., 2021, 17, 1701-1714
     DOI: 10.1021/acs.jctc.0c01306
   
   for ONIOM refer to:
   * C. Plett, A. Katbashev, S. Ehlert, S. Grimme, M. Bursch,
     Phys. Chem. Chem. Phys., 2023, 25, 17860-17868. DOI: 10.1039/D3CP02178E
   
   for DIPRO refer to:
   * J. Kohn, N. Gildemeister, S. Grimme, D. Fazzi, A. Hansen,
     J. Chem. Phys., 2023, just accepted.
   
   for PTB refer to:
   * S. Grimme, M. Mueller, A. Hansen, J. Chem. Phys., 2023, 158, 124111.
     DOI: 10.1063/5.0137838
   
   with help from (in alphabetical order)
   P. Atkinson, C. Bannwarth, F. Bohle, G. Brandenburg, E. Caldeweyher
   M. Checinski, S. Dohm, S. Ehlert, S. Ehrlich, I. Gerasimov, C. Hölzer
   A. Katbashev, J. Kohn, J. Koopman, C. Lavigne, S. Lehtola, F. März, M. Müller,
   F. Musil, H. Neugebauer, J. Pisarek, C. Plett, P. Pracht, F. Pultar,
   J. Seibert, P. Shushkov, S. Spicher, M. Stahn, M. Steiner, T. Strunk,
   J. Stückrath, T. Rose, and J. Unsleber
   
 * started run on 2026/01/05 at 09:07:06.117     
   ID    Z sym.   atoms
    1    6 C      1, 3-11, 14-16, 18, 20, 21, 24-29, 32, 62, 64, 67, 68, 70,
                  72, 74, 76, 78, 82, 84, 87, 90, 94, 96, 99, 102, 107, 111,
                  113, 116, 119, 122, 126, 128, 130, 134, 138, 142, 144, 146,
                  150, 153, 157, 161, 163, 166, 169, 174, 181, 185, 187, 190,
                  191, 193, 195, 198, 200, 202, 206, 208, 211, 213, 217, 219,
                  223, 225, 227, 231, 234, 238, 242, 244, 246, 250, 253, 257
    2    7 N      2, 22, 60, 80, 92, 104, 109, 124, 140, 159, 172, 175, 178,
                  183, 204, 212, 215, 221, 240
    3    8 O      12, 13, 17, 30, 31, 79, 88, 89, 91, 103, 108, 120, 121,
                  123, 139, 158, 182, 196, 203, 220, 239, 258
    4   16 S      19, 23
    5    1 H      33-59, 61, 63, 65, 66, 69, 71, 73, 75, 77, 81, 83, 85, 86,
                  93, 95, 97, 98, 100, 101, 105, 106, 110, 112, 114, 115,
                  117, 118, 125, 127, 129, 131-133, 135-137, 141, 143, 145,
                  147-149, 151, 152, 154-156, 160, 162, 164, 165, 167, 168,
                  170, 171, 173, 176, 177, 179, 180, 184, 186, 188, 189, 192,
                  194, 197, 199, 201, 205, 207, 209, 210, 214, 216, 218, 222,
                  224, 226, 228-230, 232, 233, 235-237, 241, 243, 245,
                  247-249, 251, 252, 254-256, 259-268

           -------------------------------------------------
          |                Calculation Setup                |
           -------------------------------------------------

          program call               : xtb /home/antonio_mesquita/Documentos/gmx_ISA_project/testes_arquivos_primeiros/gmx_ISA_testes/testes_qm_xtb/QM_analysis/QM_FRAMES_CAPPED/frame_3000ps/complex_capped_3000ps.xyz --gfn 2 --alpb water --chrg 0 --etemp 1500 --cycles 1000
          coordinate file            : /home/antonio_mesquita/Documentos/gmx_ISA_project/testes_arquivos_primeiros/gmx_ISA_testes/testes_qm_xtb/QM_analysis/QM_FRAMES_CAPPED/frame_3000ps/complex_capped_3000ps.xyz
          omp threads                :                    16


molecular fragmentation (1/2 indicates fragments):
111111111111111111111111111111111111111111111111111111111112222222222222
222222222222222222222222222222222222222222222222222222222222222222222222
222222222222222222222222222222222222222222222222222222222222222222222222
2222222222222222222222222222222222222222222222222222
# atoms in fragment 1/2:    59   209
 fragment masses (1/2) :      475.60     1423.68
CMA distance (Bohr)    :   9.319
constraining FC (au)   :  0.0500

           -------------------------------------------------
          |                 G F N 2 - x T B                 |
           -------------------------------------------------

        Reference                      10.1021/acs.jctc.8b01176
      * Hamiltonian:
        H0-scaling (s, p, d)           1.850000    2.230000    2.230000
        zeta-weighting                 0.500000
      * Dispersion:
        s8                             2.700000
        a1                             0.520000
        a2                             5.000000
        s9                             5.000000
      * Repulsion:
        kExp                           1.500000    1.000000
        rExp                           1.000000
      * Coulomb:
        alpha                          2.000000
        third order                    shell-resolved
        anisotropic                    true
        a3                             3.000000
        a5                             4.000000
        cn-shift                       1.200000
        cn-exp                         4.000000
        max-rad                        5.000000

      * Solvation model:               ALPB
        Solvent                        water
        Parameter file                 internal GFN2-xTB/ALPB
        Dielectric constant                8.0200E+01
        Reference state                gsolv [1 M gas/solution]
        Free energy shift                  1.0808E-03 Eh       6.7819E-01 kcal/mol
        Temperature                        2.9815E+02 K
        Density                            1.0000E+00 kg/L
        Solvent mass                       1.8000E+01 g/mol
        Interaction kernel             P16
        Born radius scaling (c1)           1.4744E+00
        Born radii integrator          GBOBC
        Born offset                        0.0000E+00 a0       0.0000E+00 AA
        H-bond correction              true
        Ion screening                  false
        Surface tension                    1.0000E-05 Eh       1.5569E+01 dyn/cm
        Grid points                               230 per atom

          ...................................................
          :                      SETUP                      :
          :.................................................:
          :  # basis functions                 679          :
          :  # atomic orbitals                 677          :
          :  # shells                          403          :
          :  # electrons                       734          :
          :  max. iterations                   250          :
          :  Hamiltonian                  GFN2-xTB          :
          :  restarted?                      false          :
          :  GBSA solvation                   true          :
          :  PC potential                    false          :
          :  electronic temp.         1500.0000000     K    :
          :  accuracy                    1.0000000          :
          :  -> integral cutoff          0.2500000E+02      :
          :  -> integral neglect         0.1000000E-07      :
          :  -> SCF convergence          0.1000000E-05 Eh   :
          :  -> wf. convergence          0.1000000E-03 e    :
          :  Broyden damping             0.4000000          :
          :  net charge                          0          :
          :  unpaired electrons                  0          :
          ...................................................

 iter      E             dE          RMSdq      gap      omega  full diag
   1   -416.8693337 -0.416869E+03  0.456E+00    0.17       0.0  T
   2   -417.6687073 -0.799374E+00  0.259E+00    1.60       1.0  T
   3   -417.4917446  0.176963E+00  0.177E+00    0.13       1.0  T
   4   -417.8204117 -0.328667E+00  0.937E-01    0.37       1.0  T
   5   -417.8961169 -0.757052E-01  0.555E-01    0.04       1.0  T
   6   -417.9359126 -0.397957E-01  0.365E-01    0.46       1.0  T
   7   -417.9324375  0.347511E-02  0.343E-01    0.03       1.0  T
   8   -417.9610675 -0.286300E-01  0.171E-01    0.24       1.0  T
   9   -417.9639736 -0.290608E-02  0.133E-01    0.34       1.0  T
  10   -417.9644508 -0.477210E-03  0.111E-01    0.31       1.0  T
  11   -417.9663399 -0.188916E-02  0.767E-02    0.24       1.0  T
  12   -417.9677011 -0.136117E-02  0.308E-02    0.32       1.0  T
  13   -417.9678433 -0.142264E-03  0.193E-02    0.31       1.0  T
  14   -417.9678320  0.113773E-04  0.192E-02    0.28       1.0  T
  15   -417.9679325 -0.100508E-03  0.403E-03    0.30       1.5  T
  16   -417.9679353 -0.280993E-05  0.140E-03    0.30       4.4  T
  17   -417.9679352  0.115705E-06  0.115E-03    0.30       5.3  T
  18   -417.9679354 -0.207158E-06  0.733E-04    0.30       8.3  T
  19   -417.9679355 -0.120281E-06  0.182E-04    0.30      33.6  T

   *** convergence criteria satisfied after 19 iterations ***

         #    Occupation            Energy/Eh            Energy/eV
      -------------------------------------------------------------
         1        2.0000           -0.7925635             -21.5668
       ...           ...                  ...                  ...
       361        1.9748           -0.3707312             -10.0881
       362        1.9584           -0.3683170             -10.0224
       363        1.9057           -0.3642974              -9.9130
       364        1.8682           -0.3626133              -9.8672
       365        1.8336           -0.3614180              -9.8347
       366        1.8251           -0.3611603              -9.8277
       367        1.7879           -0.3601459              -9.8001 (HOMO)
       368        0.9124           -0.3491849              -9.5018 (LUMO)
       369        0.0000           -0.2962316              -8.0609
       370        0.0000           -0.2950526              -8.0288
       371        0.0000           -0.2946920              -8.0190
       372        0.0000           -0.2924669              -7.9584
       ...           ...                  ...                  ...
       677                          1.0582448              28.7963
      -------------------------------------------------------------
                  HL-Gap            0.0109610 Eh            0.2983 eV
             Fermi-level           -0.3500191 Eh           -9.5245 eV

 SCC (total)                   0 d,  0 h,  0 min,  2.754 sec
 SCC setup                      ...        0 min,  0.013 sec (  0.461%)
 Dispersion                     ...        0 min,  0.026 sec (  0.935%)
 classical contributions        ...        0 min,  0.003 sec (  0.116%)
 integral evaluation            ...        0 min,  0.059 sec (  2.137%)
 iterations                     ...        0 min,  2.378 sec ( 86.340%)
 molecular gradient             ...        0 min,  0.265 sec (  9.613%)
 printout                       ...        0 min,  0.011 sec (  0.396%)

         :::::::::::::::::::::::::::::::::::::::::::::::::::::
         ::                     SUMMARY                     ::
         :::::::::::::::::::::::::::::::::::::::::::::::::::::
         :: total energy            -412.924526183660 Eh    ::
         :: total w/o Gsasa/hb      -412.887623878151 Eh    ::
         :: gradient norm              0.320231706695 Eh/a0 ::
         :: HOMO-LUMO gap              0.298264373611 eV    ::
         ::.................................................::
         :: SCC energy              -417.947561061202 Eh    ::
         :: -> isotropic ES            1.341240388818 Eh    ::
         :: -> anisotropic ES         -0.033133872762 Eh    ::
         :: -> anisotropic XC          0.165243948589 Eh    ::
         :: -> dispersion             -0.317475353913 Eh    ::
         :: -> Gsolv                  -0.459067382373 Eh    ::
         ::    -> Gelec               -0.422165076864 Eh    ::
         ::    -> Gsasa                0.012026496284 Eh    ::
         ::    -> Ghb                 -0.050009561491 Eh    ::
         ::    -> Gshift               0.001080759698 Eh    ::
         :: repulsion energy           5.023034877541 Eh    ::
         :: add. restraining           0.000000000000 Eh    ::
         :: total charge               0.000000000194 e     ::
         :::::::::::::::::::::::::::::::::::::::::::::::::::::

           -------------------------------------------------
          |                Property Printout                |
           -------------------------------------------------

    * Orbital Energies and Occupations

         #    Occupation            Energy/Eh            Energy/eV
      -------------------------------------------------------------
         1        2.0000           -0.7925635             -21.5668
       ...           ...                  ...                  ...
       355        1.9992           -0.3870089             -10.5310
       356        1.9984           -0.3838492             -10.4451
       357        1.9922           -0.3763574             -10.2412
       358        1.9903           -0.3753085             -10.2127
       359        1.9786           -0.3715257             -10.1097
       360        1.9764           -0.3710548             -10.0969
       361        1.9748           -0.3707312             -10.0881
       362        1.9584           -0.3683170             -10.0224
       363        1.9057           -0.3642974              -9.9130
       364        1.8682           -0.3626133              -9.8672
       365        1.8336           -0.3614180              -9.8347
       366        1.8251           -0.3611603              -9.8277
       367        1.7879           -0.3601459              -9.8001 (HOMO)
       368        0.9124           -0.3491849              -9.5018 (LUMO)
       369        0.0000           -0.2962316              -8.0609
       370        0.0000           -0.2950526              -8.0288
       371        0.0000           -0.2946920              -8.0190
       372        0.0000           -0.2924669              -7.9584
       373        0.0000           -0.2825789              -7.6894
       374                         -0.2668337              -7.2609
       375                         -0.2537960              -6.9061
       376                         -0.2532476              -6.8912
       377                         -0.2297210              -6.2510
       378                         -0.2294049              -6.2424
       ...                                ...                  ...
       677                          1.0582448              28.7963
      -------------------------------------------------------------
                  HL-Gap            0.0109610 Eh            0.2983 eV
             Fermi-level           -0.3500191 Eh           -9.5245 eV

     #   Z          covCN         q      C6AA      α(0)
     1   6 C        2.743     0.272    22.397     7.749
     2   7 N        2.688    -0.108    23.360     7.178
     3   6 C        2.875     0.042    27.058     8.527
     4   6 C        3.682     0.084    19.377     6.304
     5   6 C        3.807    -0.071    21.846     6.654
     6   6 C        2.960     0.022    27.519     8.604
     7   6 C        2.926    -0.038    28.947     8.823
     8   6 C        2.906    -0.038    28.954     8.823
     9   6 C        2.912    -0.038    28.946     8.822
    10   6 C        2.909    -0.026    28.653     8.777
    11   6 C        2.925    -0.034    28.842     8.807
    12   8 O        1.702    -0.282    18.687     5.836
    13   8 O        0.857    -0.493    23.638     6.518
    14   6 C        2.703     0.335    21.308     7.555
    15   6 C        3.746    -0.117    22.813     6.813
    16   6 C        3.818     0.018    20.264     6.407
    17   8 O        0.862    -0.443    22.549     6.367
    18   6 C        3.788    -0.018    20.906     6.512
    19  16 S        1.965    -0.202   149.631    20.588
    20   6 C        3.792    -0.033    21.165     6.552
    21   6 C        3.839     0.032    20.013     6.364
    22   7 N        2.729    -0.292    27.523     7.792
    23  16 S        3.775     1.149   102.472    17.037
    24   6 C        2.954    -0.091    30.289     9.027
    25   6 C        2.945    -0.025    28.638     8.777
    26   6 C        2.915    -0.028    28.701     8.785
    27   6 C        2.969     0.041    27.077     8.535
    28   6 C        2.910    -0.038    28.934     8.820
    29   6 C        2.951    -0.030    28.752     8.795
    30   8 O        0.859    -0.654    27.482     7.029
    31   8 O        0.859    -0.616    26.520     6.905
    32   6 C        3.755    -0.135    23.144     6.860
    33   1 H        0.861     0.232     0.957     1.532
    34   1 H        0.924     0.049     2.335     2.390
    35   1 H        0.924     0.060     2.198     2.318
    36   1 H        0.925     0.087     1.907     2.159
    37   1 H        0.924     0.090     1.880     2.144
    38   1 H        0.926     0.035     2.510     2.478
    39   1 H        0.924     0.068     2.108     2.270
    40   1 H        0.925     0.065     2.138     2.287
    41   1 H        0.925     0.040     2.454     2.450
    42   1 H        0.924     0.028     2.618     2.530
    43   1 H        0.923     0.052     2.299     2.371
    44   1 H        0.923     0.054     2.273     2.358
    45   1 H        0.925     0.072     2.059     2.244
    46   1 H        0.923     0.040     2.444     2.445
    47   1 H        0.923     0.061     2.184     2.311
    48   1 H        0.923     0.058     2.222     2.331
    49   1 H        0.924     0.071     2.075     2.253
    50   1 H        0.924     0.085     1.930     2.173
    51   1 H        0.924     0.105     1.738     2.061
    52   1 H        0.923     0.111     1.687     2.031
    53   1 H        0.925     0.053     2.278     2.360
    54   1 H        0.925     0.073     2.052     2.240
    55   1 H        0.925     0.094     1.843     2.123
    56   1 H        0.925     0.059     2.205     2.322
    57   1 H        0.924     0.086     1.917     2.165
    58   1 H        0.924     0.061     2.189     2.314
    59   1 H        0.923     0.069     2.093     2.263
    60   7 N        2.631    -0.346    28.911     7.986
    61   1 H        0.860     0.175     1.244     1.747
    62   6 C        3.786     0.032    20.055     6.378
    63   1 H        0.925     0.077     2.015     2.220
    64   6 C        3.819    -0.083    22.061     6.685
    65   1 H        0.923     0.083     1.945     2.181
    66   1 H        0.925     0.075     2.036     2.231
    67   6 C        2.968     0.006    27.893     8.663
    68   6 C        2.926    -0.045    29.122     8.850
    69   1 H        0.926     0.058     2.225     2.332
    70   6 C        2.904    -0.040    28.985     8.828
    71   1 H        0.926     0.060     2.201     2.320
    72   6 C        2.930    -0.039    28.976     8.828
    73   1 H        0.925     0.031     2.579     2.512
    74   6 C        2.909    -0.034    28.858     8.809
    75   1 H        0.925     0.019     2.754     2.595
    76   6 C        2.914    -0.039    28.974     8.827
    77   1 H        0.926     0.016     2.796     2.615
    78   6 C        2.757     0.271    22.420     7.754
    79   8 O        0.861    -0.521    24.260     6.604
    80   7 N        2.702    -0.161    24.479     7.348
    81   1 H        0.860     0.220     1.012     1.575
    82   6 C        3.794     0.039    19.919     6.356
    83   1 H        0.925     0.085     1.933     2.174
    84   6 C        3.821    -0.083    22.067     6.685
    85   1 H        0.925     0.048     2.339     2.391
    86   1 H        0.925     0.074     2.044     2.236
    87   6 C        2.686     0.360    20.892     7.480
    88   8 O        0.857    -0.648    27.317     7.007
    89   8 O        0.857    -0.644    27.226     6.996
    90   6 C        2.758     0.208    23.580     7.952
    91   8 O        0.857    -0.367    21.028     6.148
    92   7 N        2.633    -0.354    29.126     8.015
    93   1 H        0.860     0.196     1.128     1.664
    94   6 C        3.788     0.031    20.072     6.381
    95   1 H        0.924     0.090     1.882     2.145
    96   6 C        3.809    -0.054    21.533     6.606
    97   1 H        0.924     0.055     2.254     2.348
    98   1 H        0.924     0.052     2.297     2.370
    99   6 C        3.804    -0.098    22.371     6.733
   100   1 H        0.924     0.083     1.953     2.186
   101   1 H        0.924     0.073     2.049     2.239
   102   6 C        2.745     0.279    22.274     7.728
   103   8 O        0.872    -0.553    24.972     6.700
   104   7 N        2.648    -0.300    27.725     7.820
   105   1 H        0.860     0.240     0.923     1.505
   106   1 H        0.860     0.273     0.801     1.402
   107   6 C        2.749     0.264    22.538     7.774
   108   8 O        0.863    -0.517    24.150     6.589
   109   7 N        2.693    -0.187    25.062     7.435
   110   1 H        0.860     0.210     1.056     1.610
   111   6 C        3.795     0.030    20.076     6.380
   112   1 H        0.925     0.073     2.053     2.241
   113   6 C        3.812    -0.048    21.426     6.588
   114   1 H        0.925     0.047     2.352     2.398
   115   1 H        0.925     0.053     2.280     2.361
   116   6 C        3.802    -0.094    22.299     6.723
   117   1 H        0.924     0.051     2.313     2.378
   118   1 H        0.925     0.039     2.460     2.453
   119   6 C        2.687     0.369    20.740     7.453
   120   8 O        0.857    -0.648    27.338     7.010
   121   8 O        0.857    -0.649    27.347     7.011
   122   6 C        2.755     0.274    22.370     7.745
   123   8 O        0.859    -0.525    24.351     6.616
   124   7 N        2.690    -0.149    24.222     7.310
   125   1 H        0.860     0.215     1.034     1.593
   126   6 C        3.797     0.023    20.188     6.398
   127   1 H        0.924     0.073     2.055     2.242
   128   6 C        3.857    -0.017    20.842     6.493
   129   1 H        0.925     0.053     2.281     2.362
   130   6 C        3.759    -0.115    22.742     6.799
   131   1 H        0.924     0.038     2.480     2.463
   132   1 H        0.925     0.046     2.371     2.408
   133   1 H        0.925     0.044     2.395     2.420
   134   6 C        3.754    -0.113    22.722     6.797
   135   1 H        0.925     0.049     2.328     2.386
   136   1 H        0.923     0.050     2.317     2.380
   137   1 H        0.924     0.032     2.562     2.503
   138   6 C        2.759     0.265    22.530     7.773
   139   8 O        0.859    -0.503    23.859     6.549
   140   7 N        2.692    -0.153    24.311     7.323
   141   1 H        0.860     0.206     1.075     1.624
   142   6 C        3.812     0.019    20.238     6.403
   143   1 H        0.925     0.081     1.972     2.196
   144   6 C        3.857    -0.021    20.911     6.503
   145   1 H        0.924     0.067     2.119     2.277
   146   6 C        3.760    -0.120    22.852     6.815
   147   1 H        0.924     0.064     2.152     2.294
   148   1 H        0.925     0.058     2.227     2.334
   149   1 H        0.924     0.035     2.523     2.484
   150   6 C        3.804    -0.062    21.687     6.630
   151   1 H        0.924     0.042     2.417     2.431
   152   1 H        0.925     0.033     2.546     2.495
   153   6 C        3.752    -0.122    22.896     6.824
   154   1 H        0.925     0.039     2.456     2.451
   155   1 H        0.925     0.042     2.418     2.432
   156   1 H        0.924     0.058     2.226     2.333
   157   6 C        2.753     0.274    22.358     7.743
   158   8 O        0.859    -0.522    24.286     6.607
   159   7 N        2.698    -0.170    24.684     7.379
   160   1 H        0.860     0.239     0.926     1.507
   161   6 C        3.790     0.032    20.047     6.377
   162   1 H        0.925     0.090     1.878     2.143
   163   6 C        3.821    -0.086    22.122     6.693
   164   1 H        0.925     0.077     2.007     2.216
   165   1 H        0.924     0.082     1.957     2.188
   166   6 C        3.801    -0.081    22.043     6.684
   167   1 H        0.925     0.076     2.024     2.225
   168   1 H        0.924     0.066     2.129     2.282
   169   6 C        3.742    -0.024    21.083     6.551
   170   1 H        0.924     0.088     1.903     2.157
   171   1 H        0.925     0.088     1.897     2.154
   172   7 N        2.692    -0.137    23.969     7.271
   173   1 H        0.860     0.236     0.939     1.518
   174   6 C        2.736     0.236    23.059     7.862
   175   7 N        2.657    -0.266    26.894     7.702
   176   1 H        0.860     0.254     0.867     1.459
   177   1 H        0.860     0.272     0.801     1.402
   178   7 N        2.663    -0.281    27.260     7.754
   179   1 H        0.860     0.249     0.888     1.476
   180   1 H        0.860     0.261     0.843     1.438
   181   6 C        2.759     0.215    23.447     7.930
   182   8 O        0.857    -0.374    21.159     6.167
   183   7 N        2.638    -0.327    28.423     7.918
   184   1 H        0.860     0.198     1.116     1.655
   185   6 C        3.783     0.042    19.890     6.353
   186   1 H        0.923     0.098     1.805     2.101
   187   6 C        3.818    -0.073    21.879     6.657
   188   1 H        0.925     0.071     2.075     2.253
   189   1 H        0.925     0.067     2.121     2.277
   190   6 C        2.956     0.007    27.867     8.659
   191   6 C        2.921    -0.042    29.046     8.838
   192   1 H        0.926     0.051     2.301     2.372
   193   6 C        2.910    -0.060    29.491     8.905
   194   1 H        0.926     0.031     2.566     2.505
   195   6 C        2.831     0.142    24.897     8.176
   196   8 O        1.659    -0.442    21.678     6.285
   197   1 H        0.805     0.336     0.623     1.240
   198   6 C        2.918    -0.074    29.852     8.960
   199   1 H        0.926     0.043     2.403     2.424
   200   6 C        2.914    -0.046    29.150     8.853
   201   1 H        0.925     0.056     2.241     2.341
   202   6 C        2.762     0.200    23.746     7.980
   203   8 O        0.856    -0.388    21.439     6.208
   204   7 N        2.631    -0.317    28.149     7.880
   205   1 H        0.861     0.203     1.091     1.636
   206   6 C        3.792     0.038    19.942     6.360
   207   1 H        0.925     0.081     1.970     2.195
   208   6 C        3.804    -0.066    21.756     6.640
   209   1 H        0.925     0.069     2.100     2.266
   210   1 H        0.924     0.093     1.847     2.126
   211   6 C        2.976     0.048    26.909     8.509
   212   7 N        2.030    -0.309    28.773     7.956
   213   6 C        3.034     0.080    26.181     8.393
   214   1 H        0.925     0.049     2.334     2.389
   215   7 N        2.760    -0.103    23.263     7.163
   216   1 H        0.860     0.213     1.043     1.600
   217   6 C        3.184    -0.024    28.154     8.660
   218   1 H        0.925     0.036     2.497     2.471
   219   6 C        2.758     0.211    23.533     7.944
   220   8 O        0.857    -0.350    20.708     6.101
   221   7 N        2.632    -0.333    28.560     7.937
   222   1 H        0.860     0.188     1.170     1.694
   223   6 C        3.788     0.028    20.116     6.388
   224   1 H        0.925     0.065     2.138     2.287
   225   6 C        3.857    -0.020    20.897     6.501
   226   1 H        0.924     0.051     2.302     2.373
   227   6 C        3.755    -0.112    22.694     6.793
   228   1 H        0.925     0.040     2.448     2.447
   229   1 H        0.925     0.050     2.321     2.382
   230   1 H        0.925     0.029     2.598     2.521
   231   6 C        3.805    -0.061    21.666     6.626
   232   1 H        0.924     0.037     2.492     2.469
   233   1 H        0.925     0.030     2.588     2.516
   234   6 C        3.749    -0.115    22.772     6.806
   235   1 H        0.924     0.038     2.471     2.458
   236   1 H        0.925     0.048     2.343     2.394
   237   1 H        0.924     0.047     2.359     2.402
   238   6 C        2.754     0.270    22.443     7.758
   239   8 O        0.867    -0.521    24.245     6.602
   240   7 N        2.702    -0.158    24.427     7.340
   241   1 H        0.860     0.228     0.976     1.547
   242   6 C        3.798     0.028    20.109     6.385
   243   1 H        0.925     0.080     1.983     2.202
   244   6 C        3.855    -0.025    20.977     6.514
   245   1 H        0.925     0.073     2.048     2.238
   246   6 C        3.758    -0.119    22.824     6.811
   247   1 H        0.924     0.044     2.397     2.421
   248   1 H        0.924     0.057     2.236     2.338
   249   1 H        0.924     0.038     2.477     2.461
   250   6 C        3.805    -0.054    21.546     6.608
   251   1 H        0.924     0.025     2.656     2.548
   252   1 H        0.926     0.046     2.368     2.406
   253   6 C        3.752    -0.109    22.650     6.787
   254   1 H        0.925     0.033     2.543     2.494
   255   1 H        0.925     0.034     2.533     2.489
   256   1 H        0.925     0.053     2.282     2.362
   257   6 C        2.765     0.202    23.710     7.974
   258   8 O        0.856    -0.359    20.883     6.127
   259   1 H        0.860     0.208     1.067     1.618
   260   1 H        0.923     0.065     2.139     2.287
   261   1 H        0.860     0.167     1.288     1.778
   262   1 H        0.923     0.074     2.046     2.237
   263   1 H        0.860     0.213     1.040     1.598
   264   1 H        0.923     0.083     1.947     2.182
   265   1 H        0.860     0.211     1.053     1.607
   266   1 H        0.923     0.076     2.024     2.225
   267   1 H        0.860     0.210     1.056     1.610
   268   1 H        0.923     0.079     1.991     2.206

 Mol. C6AA /au·bohr⁶  :     723958.601818
 Mol. C8AA /au·bohr⁸  :   16765701.055085
 Mol. α(0) /au        :       1293.404340


Wiberg/Mayer (AO) data.
largest (>0.10) Wiberg bond orders for each atom

 ---------------------------------------------------------------------------
     #   Z sym  total        # sym  WBO       # sym  WBO       # sym  WBO
 ---------------------------------------------------------------------------
     1   6 C    3.876 --    17 O    1.686     2 N    1.159    21 C    0.946
     2   7 N    3.488 --     3 C    1.210     1 C    1.159    33 H    0.885
                            17 O    0.127
     3   6 C    3.505 --     2 N    1.210    14 C    1.082     5 C    1.027
     4   6 C    3.922 --    15 C    1.013    35 H    0.971    34 H    0.965
                            12 O    0.937
     5   6 C    3.958 --     3 C    1.027     6 C    0.955    36 H    0.953
                            37 H    0.946
     6   6 C    3.946 --     7 C    1.423    11 C    1.396     5 C    0.955
                             9 C    0.103
     7   6 C    3.981 --     8 C    1.425     6 C    1.423    38 H    0.968
                            10 C    0.111
     8   6 C    3.981 --     9 C    1.445     7 C    1.425    39 H    0.967
                            11 C    0.114
     9   6 C    3.979 --     8 C    1.445    10 C    1.430    40 H    0.967
                             6 C    0.103
    10   6 C    3.985 --    11 C    1.447     9 C    1.430    41 H    0.967
                             7 C    0.111
    11   6 C    3.980 --    10 C    1.447     6 C    1.396    42 H    0.966
                             8 C    0.114
    12   8 O    2.241 --    14 C    1.090     4 C    0.937    13 O    0.152
    13   8 O    1.872 --    14 C    1.620    12 O    0.152
    14   6 C    3.862 --    13 O    1.620    12 O    1.090     3 C    1.082
    15   6 C    3.988 --     4 C    1.013    45 H    0.984    44 H    0.984
                            43 H    0.983
    16   6 C    3.972 --    18 C    1.003    22 N    0.990    46 H    0.969
                            47 H    0.960
    17   8 O    1.926 --     1 C    1.686     2 N    0.127
    18   6 C    3.973 --    16 C    1.003    19 S    0.986    48 H    0.973
                            49 H    0.968
    19  16 S    2.111 --    20 C    0.992    18 C    0.986
    20   6 C    3.966 --    19 S    0.992    21 C    0.990    50 H    0.968
                            51 H    0.960
    21   6 C    3.967 --    20 C    0.990    22 N    0.982     1 C    0.946
                            52 H    0.923
    22   7 N    3.184 --    16 C    0.990    21 C    0.982    23 S    0.893
    23  16 S    4.827 --    31 O    1.565    30 O    1.539    22 N    0.893
                            24 C    0.734
    24   6 C    3.941 --    25 C    1.405    29 C    1.403    23 S    0.734
    25   6 C    3.985 --    26 C    1.448    24 C    1.405    53 H    0.966
                            28 C    0.105
    26   6 C    3.983 --    25 C    1.448    27 C    1.398    54 H    0.963
                            29 C    0.105
    27   6 C    3.982 --    28 C    1.403    26 C    1.398    32 C    1.029
    28   6 C    3.981 --    29 C    1.445    27 C    1.403    55 H    0.961
                            25 C    0.105
    29   6 C    3.983 --    28 C    1.445    24 C    1.403    56 H    0.962
                            26 C    0.105
    30   8 O    1.840 --    23 S    1.539    31 O    0.106
    31   8 O    1.865 --    23 S    1.565    30 O    0.106
    32   6 C    3.986 --    27 C    1.029    58 H    0.981    59 H    0.971
                            57 H    0.958
    33   1 H    0.944 --     2 N    0.885
    34   1 H    0.995 --     4 C    0.965
    35   1 H    0.994 --     4 C    0.971
    36   1 H    0.987 --     5 C    0.953
    37   1 H    0.982 --     5 C    0.946
    38   1 H    0.998 --     7 C    0.968
    39   1 H    0.994 --     8 C    0.967
    40   1 H    0.994 --     9 C    0.967
    41   1 H    0.998 --    10 C    0.967
    42   1 H    0.998 --    11 C    0.966
    43   1 H    0.997 --    15 C    0.983
    44   1 H    0.997 --    15 C    0.984
    45   1 H    0.995 --    15 C    0.984
    46   1 H    0.998 --    16 C    0.969
    47   1 H    0.996 --    16 C    0.960
    48   1 H    0.996 --    18 C    0.973
    49   1 H    0.994 --    18 C    0.968
    50   1 H    0.992 --    20 C    0.968
    51   1 H    0.988 --    20 C    0.960
    52   1 H    0.985 --    21 C    0.923
    53   1 H    0.997 --    25 C    0.966
    54   1 H    0.994 --    26 C    0.963
    55   1 H    0.990 --    28 C    0.961
    56   1 H    0.996 --    29 C    0.962
    57   1 H    0.992 --    32 C    0.958
    58   1 H    0.996 --    32 C    0.981
    59   1 H    0.995 --    32 C    0.971
    60   7 N    2.996 --    62 C    1.036    61 H    0.952   259 H    0.943
    61   1 H    0.969 --    60 N    0.952
    62   6 C    3.971 --    60 N    1.036    63 H    0.949    64 C    0.946
                            78 C    0.936
    63   1 H    0.993 --    62 C    0.949
    64   6 C    3.974 --    67 C    1.008    65 H    0.962    66 H    0.954
                            62 C    0.946
    65   1 H    0.991 --    64 C    0.962
    66   1 H    0.993 --    64 C    0.954
    67   6 C    3.984 --    76 C    1.413    68 C    1.408    64 C    1.008
                            72 C    0.104
    68   6 C    3.984 --    70 C    1.437    67 C    1.408    69 H    0.965
                            74 C    0.115
    69   1 H    0.997 --    68 C    0.965
    70   6 C    3.986 --    72 C    1.442    68 C    1.437    71 H    0.968
                            76 C    0.111
    71   1 H    0.996 --    70 C    0.968
    72   6 C    3.986 --    70 C    1.442    74 C    1.434    73 H    0.971
                            67 C    0.104
    73   1 H    0.999 --    72 C    0.971
    74   6 C    3.991 --    76 C    1.441    72 C    1.434    75 H    0.972
                            68 C    0.115
    75   1 H    0.999 --    74 C    0.972
    76   6 C    3.988 --    74 C    1.441    67 C    1.413    77 H    0.965
                            70 C    0.111
    77   1 H    1.000 --    76 C    0.965
    78   6 C    3.918 --    79 O    1.602    80 N    1.299    62 C    0.936
    79   8 O    1.906 --    78 C    1.602    80 N    0.186
    80   7 N    3.470 --    78 C    1.299    82 C    0.992    81 H    0.909
                            79 O    0.186
    81   1 H    0.952 --    80 N    0.909
    82   6 C    3.976 --    90 C    1.002    80 N    0.992    83 H    0.941
                            84 C    0.939
    83   1 H    0.993 --    82 C    0.941
    84   6 C    3.971 --    85 H    0.973    86 H    0.944    82 C    0.939
                            87 C    0.929
    85   1 H    0.997 --    84 C    0.973
    86   1 H    0.994 --    84 C    0.944
    87   6 C    3.932 --    88 O    1.490    89 O    1.488    84 C    0.929
    88   8 O    1.775 --    87 C    1.490    89 O    0.214
    89   8 O    1.775 --    87 C    1.488    88 O    0.214
    90   6 C    3.895 --    91 O    1.879    82 C    1.002   260 H    0.940
    91   8 O    2.049 --    90 C    1.879
    92   7 N    2.993 --    94 C    1.016   261 H    0.956    93 H    0.952
    93   1 H    0.962 --    92 N    0.952
    94   6 C    3.973 --    92 N    1.016    96 C    0.980   107 C    0.947
                            95 H    0.935
    95   1 H    0.992 --    94 C    0.935
    96   6 C    3.980 --    99 C    0.990    94 C    0.980    98 H    0.975
                            97 H    0.969
    97   1 H    0.995 --    96 C    0.969
    98   1 H    0.997 --    96 C    0.975
    99   6 C    3.991 --    96 C    0.990   102 C    0.978   101 H    0.968
                           100 H    0.961
   100   1 H    0.993 --    99 C    0.961
   101   1 H    0.994 --    99 C    0.968
   102   6 C    3.939 --   103 O    1.609   104 N    1.325    99 C    0.978
   103   8 O    1.895 --   102 C    1.609   104 N    0.192
   104   7 N    3.376 --   102 C    1.325   105 H    0.919   106 H    0.901
                           103 O    0.192
   105   1 H    0.942 --   104 N    0.919
   106   1 H    0.925 --   104 N    0.901
   107   6 C    3.928 --   108 O    1.617   109 N    1.282    94 C    0.947
   108   8 O    1.919 --   107 C    1.617   109 N    0.183
   109   7 N    3.453 --   107 C    1.282   111 C    0.978   110 H    0.919
                           108 O    0.183
   110   1 H    0.956 --   109 N    0.919
   111   6 C    3.966 --   113 C    0.981   109 N    0.978   122 C    0.943
                           112 H    0.933
   112   1 H    0.994 --   111 C    0.933
   113   6 C    3.990 --   116 C    1.006   111 C    0.981   115 H    0.973
                           114 H    0.970
   114   1 H    0.997 --   113 C    0.970
   115   1 H    0.997 --   113 C    0.973
   116   6 C    3.972 --   113 C    1.006   118 H    0.968   117 H    0.963
                           119 C    0.928
   117   1 H    0.997 --   116 C    0.963
   118   1 H    0.998 --   116 C    0.968
   119   6 C    3.926 --   121 O    1.488   120 O    1.488   116 C    0.928
   120   8 O    1.765 --   119 C    1.488   121 O    0.212
   121   8 O    1.765 --   119 C    1.488   120 O    0.212
   122   6 C    3.951 --   123 O    1.606   124 N    1.326   111 C    0.943
   123   8 O    1.923 --   122 C    1.606   124 N    0.200
   124   7 N    3.491 --   122 C    1.326   126 C    0.982   125 H    0.905
                           123 O    0.200
   125   1 H    0.954 --   124 N    0.905
   126   6 C    3.962 --   124 N    0.982   138 C    0.956   128 C    0.951
                           127 H    0.943
   127   1 H    0.995 --   126 C    0.943
   128   6 C    3.991 --   134 C    1.010   130 C    1.006   129 H    0.961
                           126 C    0.951
   129   1 H    0.997 --   128 C    0.961
   130   6 C    3.994 --   128 C    1.006   133 H    0.986   131 H    0.984
                           132 H    0.983
   131   1 H    0.999 --   130 C    0.984
   132   1 H    0.997 --   130 C    0.983
   133   1 H    0.998 --   130 C    0.986
   134   6 C    3.993 --   128 C    1.010   137 H    0.985   135 H    0.984
                           136 H    0.983
   135   1 H    0.998 --   134 C    0.984
   136   1 H    0.997 --   134 C    0.983
   137   1 H    0.999 --   134 C    0.985
   138   6 C    3.958 --   139 O    1.613   140 N    1.314   126 C    0.956
   139   8 O    1.929 --   138 C    1.613   140 N    0.194
   140   7 N    3.475 --   138 C    1.314   142 C    0.970   141 H    0.915
                           139 O    0.194
   141   1 H    0.957 --   140 N    0.915
   142   6 C    3.950 --   140 N    0.970   144 C    0.954   157 C    0.945
                           143 H    0.944
   143   1 H    0.993 --   142 C    0.944
   144   6 C    3.981 --   146 C    1.005   150 C    1.000   145 H    0.960
                           142 C    0.954
   145   1 H    0.995 --   144 C    0.960
   146   6 C    3.986 --   144 C    1.005   148 H    0.980   147 H    0.979
                           149 H    0.978
   147   1 H    0.994 --   146 C    0.979
   148   1 H    0.997 --   146 C    0.980
   149   1 H    0.999 --   146 C    0.978
   150   6 C    3.996 --   153 C    1.014   144 C    1.000   151 H    0.977
                           152 H    0.975
   151   1 H    0.998 --   150 C    0.977
   152   1 H    0.999 --   150 C    0.975
   153   6 C    3.994 --   150 C    1.014   154 H    0.990   155 H    0.989
                           156 H    0.985
   154   1 H    0.998 --   153 C    0.990
   155   1 H    0.998 --   153 C    0.989
   156   1 H    0.997 --   153 C    0.985
   157   6 C    3.948 --   158 O    1.623   159 N    1.299   142 C    0.945
   158   8 O    1.932 --   157 C    1.623   159 N    0.189
   159   7 N    3.447 --   157 C    1.299   161 C    0.974   160 H    0.900
                           158 O    0.189
   160   1 H    0.943 --   159 N    0.900
   161   6 C    3.960 --   181 C    0.985   159 N    0.974   163 C    0.957
                           162 H    0.941
   162   1 H    0.991 --   161 C    0.941
   163   6 C    3.978 --   166 C    1.003   164 H    0.972   165 H    0.962
                           161 C    0.957
   164   1 H    0.994 --   163 C    0.972
   165   1 H    0.993 --   163 C    0.962
   166   6 C    3.988 --   169 C    1.008   163 C    1.003   168 H    0.973
                           167 H    0.973
   167   1 H    0.994 --   166 C    0.973
   168   1 H    0.996 --   166 C    0.973
   169   6 C    3.956 --   166 C    1.008   172 N    0.983   171 H    0.961
                           170 H    0.958
   170   1 H    0.992 --   169 C    0.958
   171   1 H    0.992 --   169 C    0.961
   172   7 N    3.463 --   174 C    1.316   169 C    0.983   173 H    0.911
                           175 N    0.101   178 N    0.100
   173   1 H    0.944 --   172 N    0.911
   174   6 C    3.976 --   175 N    1.325   172 N    1.316   178 N    1.306
   175   7 N    3.385 --   174 C    1.325   176 H    0.911   177 H    0.905
                           178 N    0.102   172 N    0.101
   176   1 H    0.935 --   175 N    0.911
   177   1 H    0.926 --   175 N    0.905
   178   7 N    3.377 --   174 C    1.306   179 H    0.918   180 H    0.912
                           175 N    0.102   172 N    0.100
   179   1 H    0.938 --   178 N    0.918
   180   1 H    0.932 --   178 N    0.912
   181   6 C    3.884 --   182 O    1.897   161 C    0.985   262 H    0.936
   182   8 O    2.048 --   181 C    1.897
   183   7 N    2.978 --   185 C    1.042   184 H    0.943   263 H    0.939
   184   1 H    0.961 --   183 N    0.943
   185   6 C    3.972 --   183 N    1.042   202 C    0.971   187 C    0.954
                           186 H    0.918
   186   1 H    0.981 --   185 C    0.918
   187   6 C    3.983 --   190 C    1.006   189 H    0.969   188 H    0.959
                           185 C    0.954
   188   1 H    0.993 --   187 C    0.959
   189   1 H    0.995 --   187 C    0.969
   190   6 C    3.981 --   191 C    1.408   200 C    1.398   187 C    1.006
   191   6 C    3.984 --   193 C    1.452   190 C    1.408   192 H    0.968
                           198 C    0.102
   192   1 H    0.997 --   191 C    0.968
   193   6 C    3.984 --   191 C    1.452   195 C    1.361   194 H    0.969
                           200 C    0.109
   194   1 H    0.999 --   193 C    0.969
   195   6 C    3.921 --   198 C    1.366   193 C    1.361   196 O    1.062
   196   8 O    2.087 --   195 C    1.062   197 H    0.865
   197   1 H    0.887 --   196 O    0.865
   198   6 C    3.981 --   200 C    1.452   195 C    1.366   199 H    0.968
                           191 C    0.102
   199   1 H    0.998 --   198 C    0.968
   200   6 C    3.983 --   198 C    1.452   190 C    1.398   201 H    0.965
                           193 C    0.109
   201   1 H    0.997 --   200 C    0.965
   202   6 C    3.853 --   203 O    1.883   185 C    0.971   264 H    0.932
   203   8 O    2.029 --   202 C    1.883
   204   7 N    2.974 --   206 C    1.021   265 H    0.939   205 H    0.914
   205   1 H    0.959 --   204 N    0.914
   206   6 C    3.967 --   204 N    1.021   219 C    0.988   207 H    0.951
                           208 C    0.923
   207   1 H    0.984 --   206 C    0.951
   208   6 C    3.961 --   211 C    1.018   209 H    0.963   210 H    0.956
                           206 C    0.923
   209   1 H    0.992 --   208 C    0.963
   210   1 H    0.991 --   208 C    0.956
   211   6 C    3.963 --   217 C    1.559   212 N    1.253   208 C    1.018
   212   7 N    2.979 --   213 C    1.529   211 C    1.253   215 N    0.104
   213   6 C    3.950 --   212 N    1.529   215 N    1.291   214 H    0.964
                           217 C    0.110
   214   1 H    0.997 --   213 C    0.964
   215   7 N    3.593 --   213 C    1.291   217 C    1.201   216 H    0.922
                           212 N    0.104
   216   1 H    0.954 --   215 N    0.922
   217   6 C    3.915 --   211 C    1.559   215 N    1.201   218 H    0.967
                           213 C    0.110
   218   1 H    0.998 --   217 C    0.967
   219   6 C    3.878 --   220 O    1.891   206 C    0.988   266 H    0.937
   220   8 O    2.074 --   219 C    1.891
   221   7 N    2.970 --   223 C    1.027   267 H    0.940   222 H    0.937
   222   1 H    0.965 --   221 N    0.937
   223   6 C    3.970 --   221 N    1.027   238 C    0.949   224 H    0.949
                           225 C    0.940
   224   1 H    0.989 --   223 C    0.949
   225   6 C    3.970 --   227 C    1.008   231 C    0.996   226 H    0.960
                           223 C    0.940
   226   1 H    0.996 --   225 C    0.960
   227   6 C    3.989 --   225 C    1.008   228 H    0.982   230 H    0.982
                           229 H    0.981
   228   1 H    0.997 --   227 C    0.982
   229   1 H    0.997 --   227 C    0.981
   230   1 H    0.999 --   227 C    0.982
   231   6 C    3.993 --   234 C    1.014   225 C    0.996   232 H    0.976
                           233 H    0.970
   232   1 H    0.998 --   231 C    0.976
Note: The following floating-point exceptions are signalling: IEEE_UNDERFLOW_FLAG IEEE_DENORMAL
normal termination of xtb
   233   1 H    0.999 --   231 C    0.970
   234   6 C    3.990 --   231 C    1.014   235 H    0.987   237 H    0.984
                           236 H    0.983
   235   1 H    0.998 --   234 C    0.987
   236   1 H    0.997 --   234 C    0.983
   237   1 H    0.998 --   234 C    0.984
   238   6 C    3.938 --   239 O    1.604   240 N    1.304   223 C    0.949
   239   8 O    1.910 --   238 C    1.604   240 N    0.188
   240   7 N    3.487 --   238 C    1.304   242 C    0.973   241 H    0.888
                           239 O    0.188
   241   1 H    0.948 --   240 N    0.888
   242   6 C    3.960 --   240 N    0.973   257 C    0.968   243 H    0.958
                           244 C    0.951
   243   1 H    0.993 --   242 C    0.958
   244   6 C    3.983 --   246 C    1.007   250 C    0.997   245 H    0.952
                           242 C    0.951
   245   1 H    0.994 --   244 C    0.952
   246   6 C    3.992 --   244 C    1.007   247 H    0.984   249 H    0.981
                           248 H    0.978
   247   1 H    0.998 --   246 C    0.984
   248   1 H    0.996 --   246 C    0.978
   249   1 H    0.999 --   246 C    0.981
   250   6 C    3.992 --   253 C    1.015   244 C    0.997   252 H    0.974
                           251 H    0.968
   251   1 H    0.999 --   250 C    0.968
   252   1 H    0.997 --   250 C    0.974
   253   6 C    3.993 --   250 C    1.015   254 H    0.987   256 H    0.983
                           255 H    0.982
   254   1 H    0.998 --   253 C    0.987
   255   1 H    0.999 --   253 C    0.982
   256   1 H    0.997 --   253 C    0.983
   257   6 C    3.878 --   258 O    1.889   242 C    0.968   268 H    0.938
   258   8 O    2.072 --   257 C    1.889
   259   1 H    0.956 --    60 N    0.943
   260   1 H    0.995 --    90 C    0.940
   261   1 H    0.972 --    92 N    0.956
   262   1 H    0.995 --   181 C    0.936
   263   1 H    0.954 --   183 N    0.939
   264   1 H    0.987 --   202 C    0.932
   265   1 H    0.955 --   204 N    0.939
   266   1 H    0.991 --   219 C    0.937
   267   1 H    0.956 --   221 N    0.940
   268   1 H    0.993 --   257 C    0.938
 ---------------------------------------------------------------------------

Topologies differ in total number of bonds
Writing topology from bond orders to xtbtopo.mol

molecular dipole:
                 x           y           z       tot (Debye)
 q only:       34.260      17.642     -31.505
   full:       32.556      17.031     -30.276     121.009
molecular quadrupole (traceless):
                xx          xy          yy          xz          yz          zz
 q only:     5860.398    2635.477    2819.319    2745.900    1347.663   -8679.716
  q+dip:     5559.394    2536.904    2774.416    2590.360    1286.895   -8333.810
   full:     5564.838    2536.950    2776.065    2588.842    1288.595   -8340.903


           -------------------------------------------------
          | TOTAL ENERGY             -412.924526183660 Eh   |
          | GRADIENT NORM               0.320231706695 Eh/α |
          | HOMO-LUMO GAP               0.298264373611 eV   |
           -------------------------------------------------

------------------------------------------------------------------------
 * finished run on 2026/01/05 at 09:07:08.977     
------------------------------------------------------------------------
 total:
 * wall-time:     0 d,  0 h,  0 min,  2.859 sec
 *  cpu-time:     0 d,  0 h,  0 min, 41.495 sec
 * ratio c/w:    14.512 speedup
 SCF:
 * wall-time:     0 d,  0 h,  0 min,  2.761 sec
 *  cpu-time:     0 d,  0 h,  0 min, 40.030 sec
 * ratio c/w:    14.498 speedup

