      -----------------------------------------------------------      
     |                   =====================                   |     
     |                           x T B                           |     
     |                   =====================                   |     
     |                         S. Grimme                         |     
     |          Mulliken Center for Theoretical Chemistry        |     
     |                    University of Bonn                     |     
      -----------------------------------------------------------      

   * xtb version 6.7.1 (edcfbbe) compiled by 'conda@c0858423619e' on 2025-09-04

   xtb is free software: you can redistribute it and/or modify it under
   the terms of the GNU Lesser General Public License as published by
   the Free Software Foundation, either version 3 of the License, or
   (at your option) any later version.
   
   xtb is distributed in the hope that it will be useful,
   but WITHOUT ANY WARRANTY; without even the implied warranty of
   MERCHANTABILITY or FITNESS FOR A PARTICULAR PURPOSE.  See the
   GNU Lesser General Public License for more details.
   
   Cite this work as:
   * C. Bannwarth, E. Caldeweyher, S. Ehlert, A. Hansen, P. Pracht,
     J. Seibert, S. Spicher, S. Grimme, WIREs Comput. Mol. Sci., 2020, 11,
     e01493. DOI: 10.1002/wcms.1493
   
   for GFN2-xTB:
   * C. Bannwarth, S. Ehlert and S. Grimme., J. Chem. Theory Comput., 2019,
     15, 1652-1671. DOI: 10.1021/acs.jctc.8b01176
   for GFN1-xTB:
   * S. Grimme, C. Bannwarth, P. Shushkov, J. Chem. Theory Comput., 2017,
     13, 1989-2009. DOI: 10.1021/acs.jctc.7b00118
   for GFN0-xTB:
   * P. Pracht, E. Caldeweyher, S. Ehlert, S. Grimme, ChemRxiv, 2019, preprint.
     DOI: 10.26434/chemrxiv.8326202.v1
   for GFN-FF:
   * S. Spicher and S. Grimme, Angew. Chem. Int. Ed., 2020, 59, 15665-15673.
     DOI: 10.1002/anie.202004239
   
   for ALPB and GBSA implicit solvation:
   * S. Ehlert, M. Stahn, S. Spicher, S. Grimme, J. Chem. Theory Comput.,
     2021, 17, 4250-4261. DOI: 10.1021/acs.jctc.1c00471
   
   for ddCOSMO and CPCM-X implicit solvation:
   * M. Stahn, S. Ehlert, S. Grimme, J. Phys. Chem. A,
     2023, XX, XXXX-XXXX. DOI: 10.1021/acs.jpca.3c04382
   
   for DFT-D4:
   * E. Caldeweyher, C. Bannwarth and S. Grimme, J. Chem. Phys., 2017,
     147, 034112. DOI: 10.1063/1.4993215
   * E. Caldeweyher, S. Ehlert, A. Hansen, H. Neugebauer, S. Spicher,
     C. Bannwarth and S. Grimme, J. Chem. Phys., 2019, 150, 154122.
     DOI: 10.1063/1.5090222
   * E. Caldeweyher, J.-M. Mewes, S. Ehlert and S. Grimme, Phys. Chem. Chem. Phys.
     2020, 22, 8499-8512. DOI: 10.1039/D0CP00502A
   
   for sTDA-xTB:
   * S. Grimme and C. Bannwarth, J. Chem. Phys., 2016, 145, 054103.
     DOI: 10.1063/1.4959605
   
   in the mass-spec context:
   * V. Asgeirsson, C. Bauer and S. Grimme, Chem. Sci., 2017, 8, 4879.
     DOI: 10.1039/c7sc00601b
   * J. Koopman and S. Grimme, ACS Omega 2019, 4, 12, 15120-15133.
     DOI: 10.1021/acsomega.9b02011
   
   for metadynamics refer to:
   * S. Grimme, J. Chem. Theory Comput., 2019, 155, 2847-2862
     DOI: 10.1021/acs.jctc.9b00143
   
   for SPH calculations refer to:
   * S. Spicher and S. Grimme, J. Chem. Theory Comput., 2021, 17, 1701-1714
     DOI: 10.1021/acs.jctc.0c01306
   
   for ONIOM refer to:
   * C. Plett, A. Katbashev, S. Ehlert, S. Grimme, M. Bursch,
     Phys. Chem. Chem. Phys., 2023, 25, 17860-17868. DOI: 10.1039/D3CP02178E
   
   for DIPRO refer to:
   * J. Kohn, N. Gildemeister, S. Grimme, D. Fazzi, A. Hansen,
     J. Chem. Phys., 2023, just accepted.
   
   for PTB refer to:
   * S. Grimme, M. Mueller, A. Hansen, J. Chem. Phys., 2023, 158, 124111.
     DOI: 10.1063/5.0137838
   
   with help from (in alphabetical order)
   P. Atkinson, C. Bannwarth, F. Bohle, G. Brandenburg, E. Caldeweyher
   M. Checinski, S. Dohm, S. Ehlert, S. Ehrlich, I. Gerasimov, C. Hölzer
   A. Katbashev, J. Kohn, J. Koopman, C. Lavigne, S. Lehtola, F. März, M. Müller,
   F. Musil, H. Neugebauer, J. Pisarek, C. Plett, P. Pracht, F. Pultar,
   J. Seibert, P. Shushkov, S. Spicher, M. Stahn, M. Steiner, T. Strunk,
   J. Stückrath, T. Rose, and J. Unsleber
   
 * started run on 2026/01/05 at 09:07:22.771     
   ID    Z sym.   atoms
    1    6 C      1, 3-11, 14-16, 18, 20, 21, 24-29, 32, 62, 64, 67, 68, 70,
                  72, 74, 76, 78, 82, 84, 87, 90, 94, 96, 99, 100, 102, 104,
                  106, 108, 110, 114, 116, 119, 122, 125, 129, 131, 133, 137,
                  141, 145, 147, 150, 151, 153, 155, 158, 160, 162, 166, 168,
                  171, 173, 177, 179, 183, 185, 187, 191, 194, 198, 202, 204,
                  206, 210, 213, 217
    2    7 N      2, 22, 60, 80, 92, 112, 127, 143, 164, 172, 175, 181, 200
    3    8 O      12, 13, 17, 30, 31, 79, 88, 89, 91, 111, 123, 124, 126,
                  142, 156, 163, 180, 199, 218
    4   16 S      19, 23
    5    1 H      33-59, 61, 63, 65, 66, 69, 71, 73, 75, 77, 81, 83, 85, 86,
                  93, 95, 97, 98, 101, 103, 105, 107, 109, 113, 115, 117,
                  118, 120, 121, 128, 130, 132, 134-136, 138-140, 144, 146,
                  148, 149, 152, 154, 157, 159, 161, 165, 167, 169, 170, 174,
                  176, 178, 182, 184, 186, 188-190, 192, 193, 195-197, 201,
                  203, 205, 207-209, 211, 212, 214-216, 219-230

           -------------------------------------------------
          |                Calculation Setup                |
           -------------------------------------------------

          program call               : xtb /home/antonio_mesquita/Documentos/gmx_ISA_project/testes_arquivos_primeiros/gmx_ISA_testes/testes_qm_xtb/QM_analysis/QM_FRAMES_CAPPED/frame_3800ps/complex_capped_3800ps.xyz --gfn 2 --alpb water --chrg -1 --etemp 1500 --cycles 1000
          coordinate file            : /home/antonio_mesquita/Documentos/gmx_ISA_project/testes_arquivos_primeiros/gmx_ISA_testes/testes_qm_xtb/QM_analysis/QM_FRAMES_CAPPED/frame_3800ps/complex_capped_3800ps.xyz
          omp threads                :                    16


molecular fragmentation (1/2 indicates fragments):
111111111111111111111111111111111111111111111111111111111112222222222222
222222222222222222222222222222222222222222222222222222222222222222222222
222222222222222222222222222222222222222222222222222222222222222222222222
22222222222222
# atoms in fragment 1/2:    59   171
 fragment masses (1/2) :      475.60     1174.39
CMA distance (Bohr)    :  13.894
constraining FC (au)   :  0.0500

           -------------------------------------------------
          |                 G F N 2 - x T B                 |
           -------------------------------------------------

        Reference                      10.1021/acs.jctc.8b01176
      * Hamiltonian:
        H0-scaling (s, p, d)           1.850000    2.230000    2.230000
        zeta-weighting                 0.500000
      * Dispersion:
        s8                             2.700000
        a1                             0.520000
        a2                             5.000000
        s9                             5.000000
      * Repulsion:
        kExp                           1.500000    1.000000
        rExp                           1.000000
      * Coulomb:
        alpha                          2.000000
        third order                    shell-resolved
        anisotropic                    true
        a3                             3.000000
        a5                             4.000000
        cn-shift                       1.200000
        cn-exp                         4.000000
        max-rad                        5.000000

      * Solvation model:               ALPB
        Solvent                        water
        Parameter file                 internal GFN2-xTB/ALPB
        Dielectric constant                8.0200E+01
        Reference state                gsolv [1 M gas/solution]
        Free energy shift                  1.0808E-03 Eh       6.7819E-01 kcal/mol
        Temperature                        2.9815E+02 K
        Density                            1.0000E+00 kg/L
        Solvent mass                       1.8000E+01 g/mol
        Interaction kernel             P16
        Born radius scaling (c1)           1.4744E+00
        Born radii integrator          GBOBC
        Born offset                        0.0000E+00 a0       0.0000E+00 AA
        H-bond correction              true
        Ion screening                  false
        Surface tension                    1.0000E-05 Eh       1.5569E+01 dyn/cm
        Grid points                               230 per atom

          ...................................................
          :                      SETUP                      :
          :.................................................:
          :  # basis functions                 590          :
          :  # atomic orbitals                 588          :
          :  # shells                          348          :
          :  # electrons                       634          :
          :  max. iterations                   250          :
          :  Hamiltonian                  GFN2-xTB          :
          :  restarted?                      false          :
          :  GBSA solvation                   true          :
          :  PC potential                    false          :
          :  electronic temp.         1500.0000000     K    :
          :  accuracy                    1.0000000          :
          :  -> integral cutoff          0.2500000E+02      :
          :  -> integral neglect         0.1000000E-07      :
          :  -> SCF convergence          0.1000000E-05 Eh   :
          :  -> wf. convergence          0.1000000E-03 e    :
          :  Broyden damping             0.4000000          :
          :  net charge                         -1          :
          :  unpaired electrons                  0          :
          ...................................................

 iter      E             dE          RMSdq      gap      omega  full diag
   1   -359.0587273 -0.359059E+03  0.454E+00    0.03       0.0  T
   2   -359.5977628 -0.539036E+00  0.266E+00    1.52       1.0  T
   3   -359.5487165  0.490463E-01  0.177E+00    0.08       1.0  T
   4   -359.8012443 -0.252528E+00  0.855E-01    0.56       1.0  T
   5   -359.8283147 -0.270705E-01  0.654E-01    0.02       1.0  T
   6   -359.9151370 -0.868222E-01  0.275E-01    0.05       1.0  T
   7   -359.9169316 -0.179457E-02  0.250E-01    0.19       1.0  T
   8   -359.9259660 -0.903449E-02  0.127E-01    0.30       1.0  T
   9   -359.9282792 -0.231317E-02  0.725E-02    0.20       1.0  T
  10   -359.9287171 -0.437907E-03  0.517E-02    0.22       1.0  T
  11   -359.9289900 -0.272891E-03  0.334E-02    0.22       1.0  T
  12   -359.9291900 -0.199995E-03  0.141E-02    0.24       1.0  T
  13   -359.9291959 -0.590418E-05  0.104E-02    0.23       1.0  T
  14   -359.9292043 -0.834778E-05  0.744E-03    0.23       1.0  T
  15   -359.9292120 -0.770061E-05  0.393E-03    0.23       1.7  T
  16   -359.9292131 -0.109730E-05  0.319E-03    0.23       2.1  T
  17   -359.9292148 -0.173761E-05  0.144E-03    0.23       4.6  T
  18   -359.9292152 -0.403753E-06  0.518E-04    0.23      12.7  T
  19   -359.9292152 -0.210791E-07  0.366E-04    0.23      18.0  T

   *** convergence criteria satisfied after 19 iterations ***

         #    Occupation            Energy/Eh            Energy/eV
      -------------------------------------------------------------
         1        2.0000           -0.7931216             -21.5819
       ...           ...                  ...                  ...
       311        1.9637           -0.3682290             -10.0200
       312        1.8726           -0.3620413              -9.8516
       313        1.8679           -0.3618565              -9.8466
       314        1.8669           -0.3618193              -9.8456
       315        1.8330           -0.3606550              -9.8139
       316        1.8271           -0.3604733              -9.8090
       317        1.7532           -0.3585876              -9.7577 (HOMO)
       318        1.0869           -0.3501012              -9.5267 (LUMO)
       319        0.0000           -0.2949437              -8.0258
       320        0.0000           -0.2934953              -7.9864
       321        0.0000           -0.2906621              -7.9093
       322        0.0000           -0.2894245              -7.8756
       ...           ...                  ...                  ...
       588                          1.0568468              28.7583
      -------------------------------------------------------------
                  HL-Gap            0.0084864 Eh            0.2309 eV
             Fermi-level           -0.3492738 Eh           -9.5042 eV

 SCC (total)                   0 d,  0 h,  0 min,  2.151 sec
 SCC setup                      ...        0 min,  0.011 sec (  0.496%)
 Dispersion                     ...        0 min,  0.027 sec (  1.278%)
 classical contributions        ...        0 min,  0.004 sec (  0.175%)
 integral evaluation            ...        0 min,  0.055 sec (  2.538%)
 iterations                     ...        0 min,  1.841 sec ( 85.601%)
 molecular gradient             ...        0 min,  0.199 sec (  9.264%)
 printout                       ...        0 min,  0.014 sec (  0.646%)

         :::::::::::::::::::::::::::::::::::::::::::::::::::::
         ::                     SUMMARY                     ::
         :::::::::::::::::::::::::::::::::::::::::::::::::::::
         :: total energy            -355.530410585045 Eh    ::
         :: total w/o Gsasa/hb      -355.509997434347 Eh    ::
         :: gradient norm              0.279177075694 Eh/a0 ::
         :: HOMO-LUMO gap              0.230927637134 eV    ::
         ::.................................................::
         :: SCC energy              -359.916107254087 Eh    ::
         :: -> isotropic ES            1.046737048887 Eh    ::
         :: -> anisotropic ES         -0.009168148967 Eh    ::
         :: -> anisotropic XC          0.151551588303 Eh    ::
         :: -> dispersion             -0.267786829829 Eh    ::
         :: -> Gsolv                  -0.318539000858 Eh    ::
         ::    -> Gelec               -0.298125850160 Eh    ::
         ::    -> Gsasa                0.016417169332 Eh    ::
         ::    -> Ghb                 -0.037911079729 Eh    ::
         ::    -> Gshift               0.001080759698 Eh    ::
         :: repulsion energy           4.385696669042 Eh    ::
         :: add. restraining           0.000000000000 Eh    ::
         :: total charge              -1.000000000003 e     ::
         :::::::::::::::::::::::::::::::::::::::::::::::::::::

           -------------------------------------------------
          |                Property Printout                |
           -------------------------------------------------

    * Orbital Energies and Occupations

         #    Occupation            Energy/Eh            Energy/eV
      -------------------------------------------------------------
         1        2.0000           -0.7931216             -21.5819
       ...           ...                  ...                  ...
       305        1.9988           -0.3844638             -10.4618
       306        1.9986           -0.3836193             -10.4388
       307        1.9951           -0.3777885             -10.2801
       308        1.9883           -0.3736652             -10.1679
       309        1.9853           -0.3725680             -10.1381
       310        1.9643           -0.3683094             -10.0222
       311        1.9637           -0.3682290             -10.0200
       312        1.8726           -0.3620413              -9.8516
       313        1.8679           -0.3618565              -9.8466
       314        1.8669           -0.3618193              -9.8456
       315        1.8330           -0.3606550              -9.8139
       316        1.8271           -0.3604733              -9.8090
       317        1.7532           -0.3585876              -9.7577 (HOMO)
       318        1.0869           -0.3501012              -9.5267 (LUMO)
       319        0.0000           -0.2949437              -8.0258
       320        0.0000           -0.2934953              -7.9864
       321        0.0000           -0.2906621              -7.9093
       322        0.0000           -0.2894245              -7.8756
       323        0.0000           -0.2857151              -7.7747
       324        0.0000           -0.2850206              -7.7558
       325                         -0.2566099              -6.9827
       326                         -0.2518822              -6.8541
       327                         -0.2480086              -6.7487
       328                         -0.2312796              -6.2934
       ...                                ...                  ...
       588                          1.0568468              28.7583
      -------------------------------------------------------------
                  HL-Gap            0.0084864 Eh            0.2309 eV
             Fermi-level           -0.3492738 Eh           -9.5042 eV

     #   Z          covCN         q      C6AA      α(0)
     1   6 C        2.744     0.266    22.505     7.768
     2   7 N        2.688    -0.126    23.731     7.235
     3   6 C        2.868     0.023    27.489     8.594
     4   6 C        3.689     0.077    19.478     6.316
     5   6 C        3.807    -0.071    21.862     6.656
     6   6 C        2.960     0.016    27.649     8.625
     7   6 C        2.922    -0.044    29.102     8.847
     8   6 C        2.908    -0.039    28.966     8.825
     9   6 C        2.910    -0.037    28.915     8.817
    10   6 C        2.916    -0.028    28.696     8.784
    11   6 C        2.914    -0.043    29.078     8.842
    12   8 O        1.704    -0.290    18.824     5.858
    13   8 O        0.856    -0.509    23.982     6.566
    14   6 C        2.710     0.331    21.368     7.566
    15   6 C        3.746    -0.122    22.909     6.827
    16   6 C        3.830     0.020    20.217     6.397
    17   8 O        0.857    -0.470    23.129     6.448
    18   6 C        3.789    -0.026    21.052     6.535
    19  16 S        1.962    -0.173   148.356    20.500
    20   6 C        3.797    -0.034    21.176     6.552
    21   6 C        3.885     0.024    20.117     6.377
    22   7 N        2.737    -0.282    27.283     7.758
    23  16 S        3.843     1.143   102.653    17.052
    24   6 C        2.958    -0.091    30.270     9.024
    25   6 C        2.970    -0.033    28.808     8.804
    26   6 C        2.906    -0.037    28.917     8.817
    27   6 C        2.975     0.038    27.153     8.548
    28   6 C        2.914    -0.033    28.827     8.804
    29   6 C        2.935    -0.025    28.624     8.774
    30   8 O        0.859    -0.669    27.871     7.078
    31   8 O        0.859    -0.644    27.221     6.995
    32   6 C        3.754    -0.127    22.986     6.836
    33   1 H        0.861     0.227     0.980     1.551
    34   1 H        0.923     0.071     2.077     2.254
    35   1 H        0.924     0.048     2.346     2.396
    36   1 H        0.924     0.087     1.912     2.163
    37   1 H        0.924     0.088     1.898     2.154
    38   1 H        0.925     0.048     2.341     2.393
    39   1 H        0.926     0.062     2.174     2.306
    40   1 H        0.925     0.050     2.325     2.385
    41   1 H        0.925     0.023     2.684     2.562
    42   1 H        0.925     0.013     2.839     2.635
    43   1 H        0.922     0.070     2.083     2.257
    44   1 H        0.924     0.071     2.071     2.251
    45   1 H        0.924     0.047     2.353     2.399
    46   1 H        0.923     0.029     2.602     2.522
    47   1 H        0.922     0.063     2.165     2.301
    48   1 H        0.923     0.087     1.908     2.160
    49   1 H        0.924     0.076     2.023     2.225
    50   1 H        0.923     0.094     1.842     2.123
    51   1 H        0.924     0.082     1.962     2.191
    52   1 H        0.924     0.096     1.818     2.109
    53   1 H        0.924     0.055     2.258     2.350
    54   1 H        0.925     0.103     1.758     2.074
    55   1 H        0.925     0.083     1.944     2.180
    56   1 H        0.925     0.045     2.381     2.413
    57   1 H        0.924     0.087     1.905     2.158
    58   1 H        0.923     0.069     2.093     2.263
    59   1 H        0.924     0.060     2.200     2.319
    60   7 N        2.643    -0.329    28.459     7.923
    61   1 H        0.860     0.180     1.213     1.725
    62   6 C        3.788     0.027    20.135     6.391
    63   1 H        0.925     0.076     2.016     2.221
    64   6 C        3.823    -0.075    21.909     6.661
    65   1 H        0.924     0.078     1.999     2.211
    66   1 H        0.925     0.055     2.256     2.349
    67   6 C        2.958     0.007    27.862     8.658
    68   6 C        2.917    -0.045    29.119     8.849
    69   1 H        0.925     0.053     2.278     2.360
    70   6 C        2.908    -0.035    28.881     8.812
    71   1 H        0.925     0.044     2.391     2.418
    72   6 C        2.920    -0.036    28.906     8.817
    73   1 H        0.925     0.037     2.484     2.465
    74   6 C        2.902    -0.038    28.935     8.820
    75   1 H        0.926     0.042     2.420     2.433
    76   6 C        2.922    -0.038    28.940     8.822
    77   1 H        0.925     0.014     2.820     2.626
    78   6 C        2.751     0.277    22.307     7.734
    79   8 O        0.858    -0.504    23.877     6.551
    80   7 N        2.694    -0.162    24.496     7.351
    81   1 H        0.860     0.227     0.980     1.551
    82   6 C        3.792     0.040    19.914     6.355
    83   1 H        0.924     0.085     1.929     2.172
    84   6 C        3.816    -0.081    22.030     6.680
    85   1 H        0.925     0.045     2.381     2.413
    86   1 H        0.925     0.061     2.188     2.313
    87   6 C        2.687     0.366    20.789     7.462
    88   8 O        0.856    -0.632    26.909     6.955
    89   8 O        0.857    -0.649    27.363     7.013
    90   6 C        2.760     0.211    23.534     7.944
    91   8 O        0.856    -0.364    20.981     6.141
    92   7 N        2.635    -0.333    28.566     7.938
    93   1 H        0.860     0.188     1.171     1.695
    94   6 C        3.783     0.033    20.037     6.376
    95   1 H        0.924     0.097     1.814     2.106
    96   6 C        3.811    -0.076    21.952     6.669
    97   1 H        0.924     0.057     2.230     2.335
    98   1 H        0.924     0.076     2.016     2.220
    99   6 C        2.955     0.011    27.764     8.643
   100   6 C        2.926    -0.043    29.071     8.842
   101   1 H        0.925     0.042     2.425     2.435
   102   6 C        2.903    -0.041    29.012     8.832
   103   1 H        0.926     0.047     2.361     2.403
   104   6 C        2.917    -0.036    28.897     8.815
   105   1 H        0.925     0.030     2.592     2.518
   106   6 C        2.905    -0.034    28.840     8.806
   107   1 H        0.926     0.026     2.639     2.540
   108   6 C        2.919    -0.045    29.106     8.847
   109   1 H        0.925     0.043     2.405     2.425
   110   6 C        2.757     0.209    23.567     7.950
   111   8 O        0.856    -0.373    21.156     6.167
   112   7 N        2.633    -0.353    29.110     8.013
   113   1 H        0.860     0.180     1.213     1.726
   114   6 C        3.786     0.026    20.156     6.395
   115   1 H        0.925     0.067     2.120     2.277
   116   6 C        3.806    -0.046    21.399     6.585
   117   1 H        0.925     0.026     2.649     2.545
   118   1 H        0.925     0.040     2.444     2.445
   119   6 C        3.801    -0.094    22.295     6.723
   120   1 H        0.925     0.063     2.166     2.301
   121   1 H        0.924     0.043     2.408     2.427
   122   6 C        2.687     0.367    20.770     7.458
   123   8 O        0.857    -0.645    27.262     7.000
   124   8 O        0.857    -0.650    27.386     7.016
   125   6 C        2.745     0.261    22.600     7.784
   126   8 O        0.860    -0.521    24.256     6.603
   127   7 N        2.686    -0.144    24.119     7.294
   128   1 H        0.860     0.210     1.055     1.609
   129   6 C        3.792     0.028    20.114     6.387
   130   1 H        0.924     0.100     1.786     2.090
   131   6 C        3.854    -0.016    20.827     6.491
   132   1 H        0.924     0.067     2.113     2.273
   133   6 C        3.761    -0.114    22.728     6.796
   134   1 H        0.924     0.048     2.345     2.395
   135   1 H        0.925     0.045     2.384     2.415
   136   1 H        0.924     0.036     2.500     2.473
   137   6 C        3.757    -0.121    22.874     6.819
   138   1 H        0.925     0.065     2.138     2.287
   139   1 H        0.926     0.053     2.289     2.366
   140   1 H        0.923     0.041     2.434     2.440
   141   6 C        2.760     0.200    23.739     7.979
   142   8 O        0.856    -0.374    21.178     6.170
   143   7 N        2.638    -0.341    28.774     7.967
   144   1 H        0.860     0.185     1.187     1.707
   145   6 C        3.786     0.044    19.846     6.345
   146   1 H        0.925     0.090     1.878     2.143
   147   6 C        3.826    -0.071    21.829     6.648
   148   1 H        0.925     0.067     2.123     2.279
   149   1 H        0.926     0.065     2.137     2.286
   150   6 C        2.962    -0.002    28.066     8.690
   151   6 C        2.909    -0.044    29.100     8.846
   152   1 H        0.925     0.046     2.366     2.406
   153   6 C        2.909    -0.074    29.846     8.958
   154   1 H        0.926     0.039     2.459     2.452
   155   6 C        2.839     0.145    24.833     8.167
   156   8 O        1.660    -0.447    21.772     6.299
   157   1 H        0.806     0.351     0.586     1.203
   158   6 C        2.905    -0.058    29.430     8.895
   159   1 H        0.926     0.057     2.237     2.339
   160   6 C        2.917    -0.046    29.148     8.853
   161   1 H        0.926     0.054     2.271     2.357
   162   6 C        2.764     0.205    23.649     7.964
   163   8 O        0.856    -0.387    21.418     6.205
   164   7 N        2.641    -0.310    27.980     7.856
   165   1 H        0.860     0.194     1.137     1.671
   166   6 C        3.787     0.043    19.870     6.349
   167   1 H        0.924     0.069     2.095     2.264
   168   6 C        3.812    -0.072    21.877     6.658
   169   1 H        0.924     0.073     2.049     2.239
   170   1 H        0.924     0.076     2.024     2.225
   171   6 C        3.196     0.046    26.450     8.384
   172   7 N        1.879    -0.312    28.950     7.976
   173   6 C        3.120     0.089    25.852     8.327
   174   1 H        0.925     0.020     2.735     2.586
   175   7 N        2.804    -0.092    23.033     7.128
   176   1 H        0.860     0.207     1.069     1.620
   177   6 C        2.991    -0.033    28.806     8.804
   178   1 H        0.926     0.069     2.094     2.263
   179   6 C        2.761     0.211    23.524     7.943
   180   8 O        0.857    -0.348    20.661     6.094
   181   7 N        2.633    -0.323    28.302     7.901
   182   1 H        0.861     0.204     1.088     1.634
   183   6 C        3.789     0.022    20.212     6.403
   184   1 H        0.925     0.079     1.988     2.205
   185   6 C        3.853    -0.025    20.981     6.515
   186   1 H        0.924     0.041     2.437     2.441
   187   6 C        3.757    -0.118    22.808     6.809
   188   1 H        0.925     0.042     2.423     2.434
   189   1 H        0.924     0.059     2.216     2.328
   190   1 H        0.924     0.037     2.488     2.467
   191   6 C        3.809    -0.062    21.681     6.628
   192   1 H        0.924     0.034     2.527     2.486
   193   1 H        0.925     0.037     2.488     2.467
   194   6 C        3.750    -0.121    22.883     6.822
   195   1 H        0.924     0.036     2.502     2.474
   196   1 H        0.925     0.060     2.194     2.317
   197   1 H        0.925     0.041     2.436     2.441
   198   6 C        2.753     0.277    22.321     7.736
   199   8 O        0.861    -0.512    24.051     6.575
   200   7 N        2.690    -0.160    24.461     7.345
   201   1 H        0.860     0.238     0.932     1.512
   202   6 C        3.805     0.029    20.090     6.381
   203   1 H        0.924     0.087     1.904     2.158
   204   6 C        3.853    -0.023    20.943     6.509
   205   1 H        0.923     0.079     1.989     2.206
   206   6 C        3.764    -0.128    22.998     6.836
   207   1 H        0.924     0.043     2.415     2.430
   208   1 H        0.925     0.056     2.249     2.345
   209   1 H        0.924     0.060     2.201     2.320
   210   6 C        3.809    -0.058    21.609     6.617
   211   1 H        0.924     0.023     2.683     2.562
   212   1 H        0.924     0.034     2.528     2.486
   213   6 C        3.749    -0.115    22.767     6.805
   214   1 H        0.924     0.035     2.523     2.484
   215   1 H        0.925     0.053     2.281     2.362
   216   1 H        0.924     0.044     2.393     2.419
   217   6 C        2.759     0.205    23.643     7.963
   218   8 O        0.857    -0.364    20.978     6.141
   219   1 H        0.860     0.210     1.055     1.609
   220   1 H        0.923     0.064     2.156     2.296
   221   1 H        0.860     0.203     1.089     1.635
   222   1 H        0.923     0.049     2.330     2.387
   223   1 H        0.860     0.205     1.083     1.630
   224   1 H        0.923     0.089     1.894     2.152
   225   1 H        0.860     0.188     1.169     1.693
   226   1 H        0.923     0.074     2.039     2.233
   227   1 H        0.860     0.181     1.206     1.720
   228   1 H        0.923     0.070     2.085     2.258
   229   1 H        0.860     0.206     1.078     1.627
   230   1 H        0.923     0.077     2.011     2.218

 Mol. C6AA /au·bohr⁶  :     557913.681691
 Mol. C8AA /au·bohr⁸  :   13094857.763023
 Mol. α(0) /au        :       1143.671554


Wiberg/Mayer (AO) data.
largest (>0.10) Wiberg bond orders for each atom

 ---------------------------------------------------------------------------
     #   Z sym  total        # sym  WBO       # sym  WBO       # sym  WBO
 ---------------------------------------------------------------------------
     1   6 C    3.881 --    17 O    1.659     2 N    1.191    21 C    0.945
     2   7 N    3.488 --     1 C    1.191     3 C    1.166    33 H    0.883
                            17 O    0.150
     3   6 C    3.468 --     2 N    1.166    14 C    1.108     5 C    1.036
     4   6 C    3.913 --    15 C    1.005    35 H    0.970    34 H    0.969
                            12 O    0.937
     5   6 C    3.971 --     3 C    1.036     6 C    0.967    36 H    0.945
                            37 H    0.940
     6   6 C    3.942 --    11 C    1.409     7 C    1.407     5 C    0.967
                             9 C    0.109
     7   6 C    3.984 --     8 C    1.447     6 C    1.407    38 H    0.968
                            10 C    0.110
     8   6 C    3.983 --     7 C    1.447     9 C    1.427    39 H    0.969
                            11 C    0.112
     9   6 C    3.986 --    10 C    1.444     8 C    1.427    40 H    0.969
                             6 C    0.109
    10   6 C    3.989 --     9 C    1.444    11 C    1.436    41 H    0.971
                             7 C    0.110
    11   6 C    3.985 --    10 C    1.436     6 C    1.409    42 H    0.969
                             8 C    0.112
    12   8 O    2.236 --    14 C    1.092     4 C    0.937    13 O    0.146
    13   8 O    1.846 --    14 C    1.591    12 O    0.146
    14   6 C    3.868 --    13 O    1.591     3 C    1.108    12 O    1.092
    15   6 C    3.983 --     4 C    1.005    45 H    0.986    44 H    0.984
                            43 H    0.981
    16   6 C    3.966 --    18 C    1.001    22 N    0.994    46 H    0.967
                            47 H    0.959
    17   8 O    1.922 --     1 C    1.659     2 N    0.150
    18   6 C    3.970 --    16 C    1.001    19 S    0.988    48 H    0.969
                            49 H    0.968
    19  16 S    2.128 --    20 C    0.990    18 C    0.988
    20   6 C    3.971 --    21 C    0.991    19 S    0.990    51 H    0.967
                            50 H    0.964
    21   6 C    3.964 --    20 C    0.991    22 N    0.966     1 C    0.945
                            52 H    0.935
    22   7 N    3.180 --    16 C    0.994    21 C    0.966    23 S    0.892
    23  16 S    4.815 --    31 O    1.557    30 O    1.543    22 N    0.892
                            24 C    0.724
    24   6 C    3.935 --    29 C    1.410    25 C    1.406    23 S    0.724
    25   6 C    3.981 --    26 C    1.447    24 C    1.406    53 H    0.963
                            28 C    0.105
    26   6 C    3.976 --    25 C    1.447    27 C    1.395    54 H    0.955
                            29 C    0.106
    27   6 C    3.980 --    28 C    1.406    26 C    1.395    32 C    1.029
    28   6 C    3.981 --    29 C    1.438    27 C    1.406    55 H    0.963
                            25 C    0.105
    29   6 C    3.985 --    28 C    1.438    24 C    1.410    56 H    0.967
                            26 C    0.106
    30   8 O    1.832 --    23 S    1.543
    31   8 O    1.847 --    23 S    1.557
    32   6 C    3.986 --    27 C    1.029    58 H    0.978    59 H    0.971
                            57 H    0.953
    33   1 H    0.943 --     2 N    0.883
    34   1 H    0.994 --     4 C    0.969
    35   1 H    0.997 --     4 C    0.970
    36   1 H    0.984 --     5 C    0.945
    37   1 H    0.987 --     5 C    0.940
    38   1 H    0.997 --     7 C    0.968
    39   1 H    0.995 --     8 C    0.969
    40   1 H    0.997 --     9 C    0.969
    41   1 H    0.999 --    10 C    0.971
    42   1 H    1.000 --    11 C    0.969
    43   1 H    0.994 --    15 C    0.981
    44   1 H    0.995 --    15 C    0.984
    45   1 H    0.998 --    15 C    0.986
    46   1 H    0.999 --    16 C    0.967
    47   1 H    0.996 --    16 C    0.959
    48   1 H    0.992 --    18 C    0.969
    49   1 H    0.993 --    18 C    0.968
    50   1 H    0.990 --    20 C    0.964
    51   1 H    0.992 --    20 C    0.967
    52   1 H    0.988 --    21 C    0.935
    53   1 H    0.997 --    25 C    0.963
    54   1 H    0.989 --    26 C    0.955
    55   1 H    0.992 --    28 C    0.963
    56   1 H    0.998 --    29 C    0.967
    57   1 H    0.992 --    32 C    0.953
    58   1 H    0.995 --    32 C    0.978
    59   1 H    0.996 --    32 C    0.971
    60   7 N    2.983 --    62 C    1.031    61 H    0.949   219 H    0.941
    61   1 H    0.967 --    60 N    0.949
    62   6 C    3.962 --    60 N    1.031    63 H    0.952    64 C    0.944
                            78 C    0.930
    63   1 H    0.993 --    62 C    0.952
    64   6 C    3.967 --    67 C    1.011    65 H    0.963    66 H    0.960
                            62 C    0.944
    65   1 H    0.993 --    64 C    0.963
    66   1 H    0.993 --    64 C    0.960
    67   6 C    3.984 --    68 C    1.415    76 C    1.403    64 C    1.011
                            72 C    0.108
    68   6 C    3.985 --    70 C    1.437    67 C    1.415    69 H    0.967
                            74 C    0.112
    69   1 H    0.997 --    68 C    0.967
    70   6 C    3.989 --    72 C    1.446    68 C    1.437    71 H    0.969
                            76 C    0.109
    71   1 H    0.998 --    70 C    0.969
    72   6 C    3.981 --    70 C    1.446    74 C    1.425    73 H    0.971
                            67 C    0.108
    73   1 H    0.998 --    72 C    0.971
    74   6 C    3.988 --    76 C    1.449    72 C    1.425    75 H    0.969
                            68 C    0.112
    75   1 H    0.998 --    74 C    0.969
    76   6 C    3.986 --    74 C    1.449    67 C    1.403    77 H    0.965
                            70 C    0.109
    77   1 H    1.000 --    76 C    0.965
    78   6 C    3.923 --    79 O    1.630    80 N    1.290    62 C    0.930
    79   8 O    1.936 --    78 C    1.630    80 N    0.192
    80   7 N    3.462 --    78 C    1.290    82 C    0.989    81 H    0.911
                            79 O    0.192
    81   1 H    0.949 --    80 N    0.911
    82   6 C    3.973 --    90 C    0.999    80 N    0.989    83 H    0.943
                            84 C    0.941
    83   1 H    0.993 --    82 C    0.943
    84   6 C    3.966 --    85 H    0.973    86 H    0.950    82 C    0.941
                            87 C    0.927
    85   1 H    0.998 --    84 C    0.973
    86   1 H    0.996 --    84 C    0.950
    87   6 C    3.933 --    88 O    1.509    89 O    1.475    84 C    0.927
    88   8 O    1.799 --    87 C    1.509    89 O    0.217
    89   8 O    1.759 --    87 C    1.475    88 O    0.217
    90   6 C    3.894 --    91 O    1.888    82 C    0.999   220 H    0.942
    91   8 O    2.047 --    90 C    1.888
    92   7 N    2.991 --    94 C    1.034    93 H    0.948   221 H    0.944
    93   1 H    0.965 --    92 N    0.948
    94   6 C    3.976 --    92 N    1.034   110 C    0.983    96 C    0.937
                            95 H    0.929
    95   1 H    0.989 --    94 C    0.929
    96   6 C    3.980 --    99 C    1.010    97 H    0.971    98 H    0.960
                            94 C    0.937
    97   1 H    0.996 --    96 C    0.971
    98   1 H    0.993 --    96 C    0.960
    99   6 C    3.985 --   108 C    1.418   100 C    1.407    96 C    1.010
                           104 C    0.106
   100   6 C    3.987 --   102 C    1.446    99 C    1.407   101 H    0.969
                           106 C    0.111
   101   1 H    0.998 --   100 C    0.969
   102   6 C    3.989 --   100 C    1.446   104 C    1.430   103 H    0.970
                           108 C    0.114
   103   1 H    0.997 --   102 C    0.970
   104   6 C    3.987 --   106 C    1.446   102 C    1.430   105 H    0.969
                            99 C    0.106
   105   1 H    0.998 --   104 C    0.969
   106   6 C    3.991 --   104 C    1.446   108 C    1.433   107 H    0.971
                           100 C    0.111
   107   1 H    0.999 --   106 C    0.971
   108   6 C    3.989 --   106 C    1.433    99 C    1.418   109 H    0.969
                           102 C    0.114
   109   1 H    0.998 --   108 C    0.969
   110   6 C    3.876 --   111 O    1.888    94 C    0.983   222 H    0.935
   111   8 O    2.047 --   110 C    1.888
   112   7 N    3.004 --   114 C    1.032   113 H    0.949   223 H    0.944
   113   1 H    0.967 --   112 N    0.949
   114   6 C    3.972 --   112 N    1.032   116 C    0.974   115 H    0.948
                           125 C    0.926
   115   1 H    0.992 --   114 C    0.948
   116   6 C    3.986 --   119 C    1.005   117 H    0.975   114 C    0.974
                           118 H    0.973
   117   1 H    0.999 --   116 C    0.975
   118   1 H    0.998 --   116 C    0.973
   119   6 C    3.962 --   116 C    1.005   121 H    0.973   120 H    0.954
                           122 C    0.928
   120   1 H    0.995 --   119 C    0.954
   121   1 H    0.998 --   119 C    0.973
   122   6 C    3.921 --   123 O    1.484   124 O    1.482   119 C    0.928
   123   8 O    1.756 --   122 C    1.484   124 O    0.205
   124   8 O    1.752 --   122 C    1.482   123 O    0.205
   125   6 C    3.932 --   126 O    1.607   127 N    1.317   114 C    0.926
   126   8 O    1.905 --   125 C    1.607   127 N    0.194
   127   7 N    3.488 --   125 C    1.317   129 C    0.982   128 H    0.918
                           126 O    0.194
   128   1 H    0.956 --   127 N    0.918
   129   6 C    3.964 --   141 C    0.997   127 N    0.982   131 C    0.936
                           130 H    0.931
   130   1 H    0.990 --   129 C    0.931
   131   6 C    3.985 --   137 C    1.008   133 C    1.004   132 H    0.962
                           129 C    0.936
   132   1 H    0.995 --   131 C    0.962
   133   6 C    3.994 --   131 C    1.004   136 H    0.987   135 H    0.985
                           134 H    0.981
   134   1 H    0.996 --   133 C    0.981
   135   1 H    0.998 --   133 C    0.985
   136   1 H    0.999 --   133 C    0.987
   137   6 C    3.992 --   131 C    1.008   140 H    0.985   139 H    0.985
                           138 H    0.982
   138   1 H    0.996 --   137 C    0.982
   139   1 H    0.997 --   137 C    0.985
   140   1 H    0.998 --   137 C    0.985
   141   6 C    3.892 --   142 O    1.884   129 C    0.997   224 H    0.934
   142   8 O    2.043 --   141 C    1.884
   143   7 N    2.979 --   145 C    1.029   225 H    0.949   144 H    0.947
   144   1 H    0.966 --   143 N    0.947
   145   6 C    3.972 --   143 N    1.029   162 C    0.976   147 C    0.945
                           146 H    0.928
   146   1 H    0.983 --   145 C    0.928
   147   6 C    3.980 --   150 C    1.008   149 H    0.967   148 H    0.959
                           145 C    0.945
   148   1 H    0.994 --   147 C    0.959
   149   1 H    0.995 --   147 C    0.967
   150   6 C    3.983 --   151 C    1.407   160 C    1.398   147 C    1.008
   151   6 C    3.988 --   153 C    1.451   150 C    1.407   152 H    0.968
                           158 C    0.107
   152   1 H    0.998 --   151 C    0.968
   153   6 C    3.985 --   151 C    1.451   155 C    1.365   154 H    0.967
                           160 C    0.102
   154   1 H    0.998 --   153 C    0.967
   155   6 C    3.927 --   153 C    1.365   158 C    1.358   156 O    1.071
   156   8 O    2.086 --   155 C    1.071   157 H    0.853
   157   1 H    0.876 --   156 O    0.853
   158   6 C    3.983 --   160 C    1.458   155 C    1.358   159 H    0.967
                           151 C    0.107
   159   1 H    0.996 --   158 C    0.967
   160   6 C    3.985 --   158 C    1.458   150 C    1.398   161 H    0.962
                           153 C    0.102
   161   1 H    0.997 --   160 C    0.962
   162   6 C    3.864 --   163 O    1.880   145 C    0.976   226 H    0.934
   163   8 O    2.033 --   162 C    1.880
   164   7 N    2.992 --   166 C    1.020   227 H    0.954   165 H    0.923
   165   1 H    0.962 --   164 N    0.923
   166   6 C    3.972 --   164 N    1.020   179 C    0.981   167 H    0.960
                           168 C    0.928
   167   1 H    0.994 --   166 C    0.960
   168   6 C    3.965 --   171 C    1.013   169 H    0.961   170 H    0.960
                           166 C    0.928
   169   1 H    0.994 --   168 C    0.961
   170   1 H    0.994 --   168 C    0.960
   171   6 C    3.963 --   177 C    1.560   172 N    1.260   168 C    1.013
   172   7 N    2.990 --   173 C    1.530   171 C    1.260   175 N    0.107
   173   6 C    3.957 --   172 N    1.530   175 N    1.297   174 H    0.965
                           177 C    0.111
   174   1 H    0.999 --   173 C    0.965
   175   7 N    3.601 --   173 C    1.297   177 C    1.200   176 H    0.928
                           172 N    0.107
   176   1 H    0.957 --   175 N    0.928
   177   6 C    3.921 --   171 C    1.560   175 N    1.200   178 H    0.964
                           173 C    0.111
   178   1 H    0.995 --   177 C    0.964
   179   6 C    3.872 --   180 O    1.884   166 C    0.981   228 H    0.937
   180   8 O    2.081 --   179 C    1.884
   181   7 N    2.965 --   183 C    1.030   229 H    0.943   182 H    0.922
   182   1 H    0.958 --   181 N    0.922
   183   6 C    3.951 --   181 N    1.030   184 H    0.946   198 C    0.942
                           185 C    0.933
   184   1 H    0.983 --   183 C    0.946
   185   6 C    3.951 --   187 C    1.006   191 C    0.990   186 H    0.967
                           183 C    0.933
   186   1 H    0.996 --   185 C    0.967
   187   6 C    3.990 --   185 C    1.006   188 H    0.983   189 H    0.982
                           190 H    0.979
   188   1 H    0.996 --   187 C    0.983
   189   1 H    0.996 --   187 C    0.982
   190   1 H    0.998 --   187 C    0.979
   191   6 C    3.990 --   194 C    1.017   185 C    0.990   193 H    0.973
                           192 H    0.973
   192   1 H    0.999 --   191 C    0.973
   193   1 H    0.994 --   191 C    0.973
   194   6 C    3.990 --   191 C    1.017   197 H    0.987   195 H    0.982
                           196 H    0.979
   195   1 H    0.998 --   194 C    0.982
   196   1 H    0.996 --   194 C    0.979
   197   1 H    0.998 --   194 C    0.987
   198   6 C    3.940 --   199 O    1.611   200 N    1.318   183 C    0.942
   199   8 O    1.918 --   198 C    1.611   200 N    0.195
   200   7 N    3.482 --   198 C    1.318   202 C    0.978   201 H    0.883
                           199 O    0.195
   201   1 H    0.943 --   200 N    0.883
   202   6 C    3.961 --   200 N    0.978   217 C    0.977   203 H    0.947
                           204 C    0.944
   203   1 H    0.992 --   202 C    0.947
   204   6 C    3.982 --   206 C    1.004   210 C    0.998   205 H    0.947
                           202 C    0.944
   205   1 H    0.994 --   204 C    0.947
   206   6 C    3.991 --   204 C    1.004   208 H    0.984   209 H    0.980
                           207 H    0.980
   207   1 H    0.998 --   206 C    0.980
   208   1 H    0.997 --   206 C    0.984
Note: The following floating-point exceptions are signalling: IEEE_UNDERFLOW_FLAG IEEE_DENORMAL
normal termination of xtb
   209   1 H    0.996 --   206 C    0.980
   210   6 C    3.994 --   213 C    1.013   204 C    0.998   212 H    0.975
                           211 H    0.967
   211   1 H    0.999 --   210 C    0.967
   212   1 H    0.998 --   210 C    0.975
   213   6 C    3.992 --   210 C    1.013   216 H    0.987   215 H    0.983
                           214 H    0.983
   214   1 H    0.998 --   213 C    0.983
   215   1 H    0.997 --   213 C    0.983
   216   1 H    0.998 --   213 C    0.987
   217   6 C    3.882 --   218 O    1.890   202 C    0.977   230 H    0.937
   218   8 O    2.056 --   217 C    1.890
   219   1 H    0.955 --    60 N    0.941
   220   1 H    0.995 --    90 C    0.942
   221   1 H    0.958 --    92 N    0.944
   222   1 H    0.992 --   110 C    0.935
   223   1 H    0.958 --   112 N    0.944
   224   1 H    0.991 --   141 C    0.934
   225   1 H    0.964 --   143 N    0.949
   226   1 H    0.990 --   162 C    0.934
   227   1 H    0.966 --   164 N    0.954
   228   1 H    0.991 --   179 C    0.937
   229   1 H    0.957 --   181 N    0.943
   230   1 H    0.993 --   217 C    0.937
 ---------------------------------------------------------------------------

Topologies differ in total number of bonds
Writing topology from bond orders to xtbtopo.mol

molecular dipole:
                 x           y           z       tot (Debye)
 q only:      -26.655     -19.631    -124.930
   full:      -26.954     -19.375    -123.645     325.402
molecular quadrupole (traceless):
                xx          xy          yy          xz          yz          zz
 q only:     7342.145    -999.352    7580.252   -5514.771   -3640.713  -14922.398
  q+dip:     7194.932    -969.086    7455.351   -5479.559   -3596.709  -14650.284
   full:     7197.690    -974.107    7460.223   -5476.496   -3592.225  -14657.912


           -------------------------------------------------
          | TOTAL ENERGY             -355.530410585045 Eh   |
          | GRADIENT NORM               0.279177075694 Eh/α |
          | HOMO-LUMO GAP               0.230927637134 eV   |
           -------------------------------------------------

------------------------------------------------------------------------
 * finished run on 2026/01/05 at 09:07:25.039     
------------------------------------------------------------------------
 total:
 * wall-time:     0 d,  0 h,  0 min,  2.268 sec
 *  cpu-time:     0 d,  0 h,  0 min, 32.953 sec
 * ratio c/w:    14.530 speedup
 SCF:
 * wall-time:     0 d,  0 h,  0 min,  2.157 sec
 *  cpu-time:     0 d,  0 h,  0 min, 31.342 sec
 * ratio c/w:    14.531 speedup

